 DIM-GROUP
 3  1
 PRIMVEC
 7.9376581288E+00   0.0000000000E+00   0.0000000000E+00
 0.0000000000E+00   7.9376581288E+00   0.0000000000E+00
 0.0000000000E+00   0.0000000000E+00   7.9376581288E+00
 PRIMCOORD
          21  1
       14    0.0000000000E+00    0.0000000000E+00    0.0000000000E+00
       14    1.8804372284E+00   -1.8804372284E+00   -1.8804372284E+00
       14   -1.8804372284E+00    1.8804372284E+00   -1.8804372284E+00
       14   -1.8804372284E+00   -1.8804372284E+00    1.8804372284E+00
       14    1.8804372284E+00    1.8804372284E+00    1.8804372284E+00
        8    9.2904949682E-01   -9.2904949682E-01   -9.2904949682E-01
        8   -9.2904949682E-01    9.2904949682E-01   -9.2904949682E-01
        8   -9.2904949682E-01   -9.2904949682E-01    9.2904949682E-01
        8    9.2904949682E-01    9.2904949682E-01    9.2904949682E-01
        1    1.5645349042E+00   -1.5645349042E+00   -3.3105335111E+00
        1    1.5645349042E+00   -3.3105335111E+00   -1.5645349042E+00
        1    3.3105335111E+00   -1.5645349042E+00   -1.5645349042E+00
        1   -1.5645349042E+00    1.5645349042E+00   -3.3105335111E+00
        1   -1.5645349042E+00    3.3105335111E+00   -1.5645349042E+00
        1   -3.3105335111E+00    1.5645349042E+00   -1.5645349042E+00
        1   -1.5645349042E+00   -1.5645349042E+00    3.3105335111E+00
        1   -1.5645349042E+00   -3.3105335111E+00    1.5645349042E+00
        1   -3.3105335111E+00   -1.5645349042E+00    1.5645349042E+00
        1    3.3105335111E+00    1.5645349042E+00    1.5645349042E+00
        1    1.5645349042E+00    3.3105335111E+00    1.5645349042E+00
        1    1.5645349042E+00    1.5645349042E+00    3.3105335111E+00
 ATOMS
       14    0.0000000000E+00    0.0000000000E+00    0.0000000000E+00
       14    1.8804372284E+00   -1.8804372284E+00   -1.8804372284E+00
       14   -1.8804372284E+00    1.8804372284E+00   -1.8804372284E+00
       14   -1.8804372284E+00   -1.8804372284E+00    1.8804372284E+00
       14    1.8804372284E+00    1.8804372284E+00    1.8804372284E+00
        8    9.2904949682E-01   -9.2904949682E-01   -9.2904949682E-01
        8   -9.2904949682E-01    9.2904949682E-01   -9.2904949682E-01
        8   -9.2904949682E-01   -9.2904949682E-01    9.2904949682E-01
        8    9.2904949682E-01    9.2904949682E-01    9.2904949682E-01
        1    1.5645349042E+00   -1.5645349042E+00   -3.3105335111E+00
        1    1.5645349042E+00   -3.3105335111E+00   -1.5645349042E+00
        1    3.3105335111E+00   -1.5645349042E+00   -1.5645349042E+00
        1   -1.5645349042E+00    1.5645349042E+00   -3.3105335111E+00
        1   -1.5645349042E+00    3.3105335111E+00   -1.5645349042E+00
        1   -3.3105335111E+00    1.5645349042E+00   -1.5645349042E+00
        1   -1.5645349042E+00   -1.5645349042E+00    3.3105335111E+00
        1   -1.5645349042E+00   -3.3105335111E+00    1.5645349042E+00
        1   -3.3105335111E+00   -1.5645349042E+00    1.5645349042E+00
        1    3.3105335111E+00    1.5645349042E+00    1.5645349042E+00
        1    1.5645349042E+00    3.3105335111E+00    1.5645349042E+00
        1    1.5645349042E+00    1.5645349042E+00    3.3105335111E+00
 BEGIN_BLOCK_DATAGRID3D
 datagrids
 DATAGRID_3D_DENSITY
          31          31          31
 0.0 0.0 0.0 
 7.9376581288E+00   0.0000000000E+00   0.0000000000E+00
 0.0000000000E+00   7.9376581288E+00   0.0000000000E+00
 0.0000000000E+00   0.0000000000E+00   7.9376581288E+00
        -0.24073E-04          -0.95909E-04          -0.24816E-03          -0.33509E-03          -0.28346E-03          -0.17308E-03  
        -0.93945E-04          -0.56256E-04          -0.39753E-04          -0.26706E-04          -0.14133E-04          -0.56272E-05  
        -0.23217E-05          -0.24221E-05          -0.24488E-05          -0.23110E-05          -0.24488E-05          -0.24221E-05  
        -0.23217E-05          -0.56272E-05          -0.14133E-04          -0.26706E-04          -0.39753E-04          -0.56256E-04  
        -0.93945E-04          -0.17308E-03          -0.28346E-03          -0.33509E-03          -0.24816E-03          -0.95909E-04  
        -0.24073E-04          -0.95909E-04          -0.14743E-03          -0.21237E-03          -0.12053E-03           0.87167E-04  
         0.15790E-03           0.62418E-04          -0.15966E-04          -0.29346E-04          -0.20711E-04          -0.86567E-05  
        -0.41690E-05          -0.22701E-05           0.23923E-06          -0.77744E-06          -0.22343E-05          -0.77744E-06  
         0.23923E-06          -0.22701E-05          -0.41690E-05          -0.86567E-05          -0.20711E-04          -0.29346E-04  
        -0.15966E-04           0.62418E-04           0.15790E-03           0.87167E-04          -0.12053E-03          -0.21237E-03  
        -0.14743E-03          -0.95909E-04          -0.24816E-03          -0.21237E-03           0.66114E-06           0.54454E-03  
         0.11073E-02           0.10667E-02           0.52805E-03           0.12467E-03           0.77450E-05          -0.18229E-05  
         0.43902E-05          -0.14150E-05          -0.87152E-06           0.60359E-05           0.25369E-05          -0.12722E-05  
         0.25369E-05           0.60359E-05          -0.87152E-06          -0.14150E-05           0.43902E-05          -0.18229E-05  
         0.77450E-05           0.12467E-03           0.52805E-03           0.10667E-02           0.11073E-02           0.54454E-03  
         0.66114E-06          -0.21237E-03          -0.24816E-03          -0.33509E-03          -0.12053E-03           0.54454E-03  
         0.15983E-02           0.24146E-02           0.21519E-02           0.11155E-02           0.33592E-03           0.72331E-04  
         0.24972E-04           0.13681E-04          -0.13104E-05           0.41330E-05           0.14126E-04           0.75849E-05  
         0.27363E-05           0.75849E-05           0.14126E-04           0.41330E-05          -0.13104E-05           0.13681E-04  
         0.24972E-04           0.72331E-04           0.33592E-03           0.11155E-02           0.21519E-02           0.24146E-02  
         0.15983E-02           0.54454E-03          -0.12053E-03          -0.33509E-03          -0.28346E-03           0.87167E-04  
         0.11073E-02           0.24146E-02           0.31639E-02           0.26319E-02           0.13605E-02           0.44776E-03  
         0.11837E-03           0.39930E-04           0.11555E-04          -0.28869E-05           0.11665E-04           0.24180E-04  
         0.17801E-04           0.13364E-04           0.17801E-04           0.24180E-04           0.11665E-04          -0.28869E-05  
         0.11555E-04           0.39930E-04           0.11837E-03           0.44776E-03           0.13605E-02           0.26319E-02  
         0.31639E-02           0.24146E-02           0.11073E-02           0.87167E-04          -0.28346E-03          -0.17308E-03  
         0.15790E-03           0.10667E-02           0.21519E-02           0.26319E-02           0.20630E-02           0.10347E-02  
         0.35271E-03           0.10401E-03           0.33614E-04           0.40088E-05          -0.20184E-05           0.16415E-04  
         0.29684E-04           0.30300E-04           0.29324E-04           0.30300E-04           0.29684E-04           0.16415E-04  
        -0.20184E-05           0.40088E-05           0.33614E-04           0.10401E-03           0.35271E-03           0.10347E-02  
         0.20630E-02           0.26319E-02           0.21519E-02           0.10667E-02           0.15790E-03          -0.17308E-03  
        -0.93945E-04           0.62418E-04           0.52805E-03           0.11155E-02           0.13605E-02           0.10347E-02  
         0.50870E-03           0.18428E-03           0.66013E-04           0.23586E-04          -0.13923E-05          -0.69409E-06  
         0.15088E-04           0.25399E-04           0.34240E-04           0.38051E-04           0.34240E-04           0.25399E-04  
         0.15088E-04          -0.69409E-06          -0.13923E-05           0.23586E-04           0.66013E-04           0.18428E-03  
         0.50870E-03           0.10347E-02           0.13605E-02           0.11155E-02           0.52805E-03           0.62418E-04  
        -0.93945E-04          -0.56256E-04          -0.15966E-04           0.12467E-03           0.33592E-03           0.44776E-03  
         0.35271E-03           0.18428E-03           0.81818E-04           0.41806E-04           0.17179E-04          -0.47031E-05  
        -0.19904E-06           0.11604E-04           0.16517E-04           0.26049E-04           0.30717E-04           0.26049E-04  
         0.16517E-04           0.11604E-04          -0.19904E-06          -0.47031E-05           0.17179E-04           0.41806E-04  
         0.81818E-04           0.18428E-03           0.35271E-03           0.44776E-03           0.33592E-03           0.12467E-03  
        -0.15966E-04          -0.56256E-04          -0.39753E-04          -0.29346E-04           0.77450E-05           0.72331E-04  
         0.11837E-03           0.10401E-03           0.66013E-04           0.41806E-04           0.26047E-04           0.59299E-05  
        -0.84856E-05           0.16412E-05           0.11024E-04           0.10933E-04           0.14890E-04           0.16853E-04  
         0.14890E-04           0.10933E-04           0.11024E-04           0.16412E-05          -0.84856E-05           0.59299E-05  
         0.26047E-04           0.41806E-04           0.66013E-04           0.10401E-03           0.11837E-03           0.72331E-04  
         0.77450E-05          -0.29346E-04          -0.39753E-04          -0.26706E-04          -0.20711E-04          -0.18229E-05  
         0.24972E-04           0.39930E-04           0.33614E-04           0.23586E-04           0.17179E-04           0.59299E-05  
        -0.88465E-05          -0.11379E-04           0.36067E-05           0.12374E-04           0.91090E-05           0.71883E-05  
         0.70605E-05           0.71883E-05           0.91090E-05           0.12374E-04           0.36067E-05          -0.11379E-04  
        -0.88465E-05           0.59299E-05           0.17179E-04           0.23586E-04           0.33614E-04           0.39930E-04  
         0.24972E-04          -0.18229E-05          -0.20711E-04          -0.26706E-04          -0.14133E-04          -0.86567E-05  
         0.43902E-05           0.13681E-04           0.11555E-04           0.40088E-05          -0.13923E-05          -0.47031E-05  
        -0.84856E-05          -0.11379E-04          -0.89118E-05           0.65554E-06           0.86603E-05           0.67496E-05  
         0.22604E-05           0.13072E-05           0.22604E-05           0.67496E-05           0.86603E-05           0.65554E-06  
        -0.89118E-05          -0.11379E-04          -0.84856E-05          -0.47031E-05          -0.13923E-05           0.40088E-05  
         0.11555E-04           0.13681E-04           0.43902E-05          -0.86567E-05          -0.14133E-04          -0.56272E-05  
        -0.41690E-05          -0.14150E-05          -0.13104E-05          -0.28869E-05          -0.20184E-05          -0.69409E-06  
        -0.19904E-06           0.16412E-05           0.36067E-05           0.65554E-06          -0.33467E-05          -0.17199E-06  
         0.20166E-05          -0.37385E-06          -0.12770E-05          -0.37385E-06           0.20166E-05          -0.17199E-06  
        -0.33467E-05           0.65554E-06           0.36067E-05           0.16412E-05          -0.19904E-06          -0.69409E-06  
        -0.20184E-05          -0.28869E-05          -0.13104E-05          -0.14150E-05          -0.41690E-05          -0.56272E-05  
        -0.23217E-05          -0.22701E-05          -0.87152E-06           0.41330E-05           0.11665E-04           0.16415E-04  
         0.15088E-04           0.11604E-04           0.11024E-04           0.12374E-04           0.86603E-05          -0.17199E-06  
        -0.31608E-05          -0.13533E-05          -0.12654E-05          -0.15045E-05          -0.12654E-05          -0.13533E-05  
        -0.31608E-05          -0.17199E-06           0.86603E-05           0.12374E-04           0.11024E-04           0.11604E-04  
         0.15088E-04           0.16415E-04           0.11665E-04           0.41330E-05          -0.87152E-06          -0.22701E-05  
        -0.23217E-05          -0.24221E-05           0.23923E-06           0.60359E-05           0.14126E-04           0.24180E-04  
         0.29684E-04           0.25399E-04           0.16517E-04           0.10933E-04           0.91090E-05           0.67496E-05  
         0.20166E-05          -0.13533E-05          -0.16717E-05          -0.12494E-05          -0.10742E-05          -0.12494E-05  
        -0.16717E-05          -0.13533E-05           0.20166E-05           0.67496E-05           0.91090E-05           0.10933E-04  
         0.16517E-04           0.25399E-04           0.29684E-04           0.24180E-04           0.14126E-04           0.60359E-05  
         0.23923E-06          -0.24221E-05          -0.24488E-05          -0.77744E-06           0.25369E-05           0.75849E-05  
         0.17801E-04           0.30300E-04           0.34240E-04           0.26049E-04           0.14890E-04           0.71883E-05  
         0.22604E-05          -0.37385E-06          -0.12654E-05          -0.12494E-05          -0.94398E-06          -0.85365E-06  
        -0.94398E-06          -0.12494E-05          -0.12654E-05          -0.37385E-06           0.22604E-05           0.71883E-05  
         0.14890E-04           0.26049E-04           0.34240E-04           0.30300E-04           0.17801E-04           0.75849E-05  
         0.25369E-05          -0.77744E-06          -0.24488E-05          -0.23110E-05          -0.22343E-05          -0.12722E-05  
         0.27363E-05           0.13364E-04           0.29324E-04           0.38051E-04           0.30717E-04           0.16853E-04  
         0.70605E-05           0.13072E-05          -0.12770E-05          -0.15045E-05          -0.10742E-05          -0.85365E-06  
        -0.92904E-06          -0.85365E-06          -0.10742E-05          -0.15045E-05          -0.12770E-05           0.13072E-05  
         0.70605E-05           0.16853E-04           0.30717E-04           0.38051E-04           0.29324E-04           0.13364E-04  
         0.27363E-05          -0.12722E-05          -0.22343E-05          -0.23110E-05          -0.24488E-05          -0.77744E-06  
         0.25369E-05           0.75849E-05           0.17801E-04           0.30300E-04           0.34240E-04           0.26049E-04  
         0.14890E-04           0.71883E-05           0.22604E-05          -0.37385E-06          -0.12654E-05          -0.12494E-05  
        -0.94398E-06          -0.85365E-06          -0.94398E-06          -0.12494E-05          -0.12654E-05          -0.37385E-06  
         0.22604E-05           0.71883E-05           0.14890E-04           0.26049E-04           0.34240E-04           0.30300E-04  
         0.17801E-04           0.75849E-05           0.25369E-05          -0.77744E-06          -0.24488E-05          -0.24221E-05  
         0.23923E-06           0.60359E-05           0.14126E-04           0.24180E-04           0.29684E-04           0.25399E-04  
         0.16517E-04           0.10933E-04           0.91090E-05           0.67496E-05           0.20166E-05          -0.13533E-05  
        -0.16717E-05          -0.12494E-05          -0.10742E-05          -0.12494E-05          -0.16717E-05          -0.13533E-05  
         0.20166E-05           0.67496E-05           0.91090E-05           0.10933E-04           0.16517E-04           0.25399E-04  
         0.29684E-04           0.24180E-04           0.14126E-04           0.60359E-05           0.23923E-06          -0.24221E-05  
        -0.23217E-05          -0.22701E-05          -0.87152E-06           0.41330E-05           0.11665E-04           0.16415E-04  
         0.15088E-04           0.11604E-04           0.11024E-04           0.12374E-04           0.86603E-05          -0.17199E-06  
        -0.31608E-05          -0.13533E-05          -0.12654E-05          -0.15045E-05          -0.12654E-05          -0.13533E-05  
        -0.31608E-05          -0.17199E-06           0.86603E-05           0.12374E-04           0.11024E-04           0.11604E-04  
         0.15088E-04           0.16415E-04           0.11665E-04           0.41330E-05          -0.87152E-06          -0.22701E-05  
        -0.23217E-05          -0.56272E-05          -0.41690E-05          -0.14150E-05          -0.13104E-05          -0.28869E-05  
        -0.20184E-05          -0.69409E-06          -0.19904E-06           0.16412E-05           0.36067E-05           0.65554E-06  
        -0.33467E-05          -0.17199E-06           0.20166E-05          -0.37385E-06          -0.12770E-05          -0.37385E-06  
         0.20166E-05          -0.17199E-06          -0.33467E-05           0.65554E-06           0.36067E-05           0.16412E-05  
        -0.19904E-06          -0.69409E-06          -0.20184E-05          -0.28869E-05          -0.13104E-05          -0.14150E-05  
        -0.41690E-05          -0.56272E-05          -0.14133E-04          -0.86567E-05           0.43902E-05           0.13681E-04  
         0.11555E-04           0.40088E-05          -0.13923E-05          -0.47031E-05          -0.84856E-05          -0.11379E-04  
        -0.89118E-05           0.65554E-06           0.86603E-05           0.67496E-05           0.22604E-05           0.13072E-05  
         0.22604E-05           0.67496E-05           0.86603E-05           0.65554E-06          -0.89118E-05          -0.11379E-04  
        -0.84856E-05          -0.47031E-05          -0.13923E-05           0.40088E-05           0.11555E-04           0.13681E-04  
         0.43902E-05          -0.86567E-05          -0.14133E-04          -0.26706E-04          -0.20711E-04          -0.18229E-05  
         0.24972E-04           0.39930E-04           0.33614E-04           0.23586E-04           0.17179E-04           0.59299E-05  
        -0.88465E-05          -0.11379E-04           0.36067E-05           0.12374E-04           0.91090E-05           0.71883E-05  
         0.70605E-05           0.71883E-05           0.91090E-05           0.12374E-04           0.36067E-05          -0.11379E-04  
        -0.88465E-05           0.59299E-05           0.17179E-04           0.23586E-04           0.33614E-04           0.39930E-04  
         0.24972E-04          -0.18229E-05          -0.20711E-04          -0.26706E-04          -0.39753E-04          -0.29346E-04  
         0.77450E-05           0.72331E-04           0.11837E-03           0.10401E-03           0.66013E-04           0.41806E-04  
         0.26047E-04           0.59299E-05          -0.84856E-05           0.16412E-05           0.11024E-04           0.10933E-04  
         0.14890E-04           0.16853E-04           0.14890E-04           0.10933E-04           0.11024E-04           0.16412E-05  
        -0.84856E-05           0.59299E-05           0.26047E-04           0.41806E-04           0.66013E-04           0.10401E-03  
         0.11837E-03           0.72331E-04           0.77450E-05          -0.29346E-04          -0.39753E-04          -0.56256E-04  
        -0.15966E-04           0.12467E-03           0.33592E-03           0.44776E-03           0.35271E-03           0.18428E-03  
         0.81818E-04           0.41806E-04           0.17179E-04          -0.47031E-05          -0.19904E-06           0.11604E-04  
         0.16517E-04           0.26049E-04           0.30717E-04           0.26049E-04           0.16517E-04           0.11604E-04  
        -0.19904E-06          -0.47031E-05           0.17179E-04           0.41806E-04           0.81818E-04           0.18428E-03  
         0.35271E-03           0.44776E-03           0.33592E-03           0.12467E-03          -0.15966E-04          -0.56256E-04  
        -0.93945E-04           0.62418E-04           0.52805E-03           0.11155E-02           0.13605E-02           0.10347E-02  
         0.50870E-03           0.18428E-03           0.66013E-04           0.23586E-04          -0.13923E-05          -0.69409E-06  
         0.15088E-04           0.25399E-04           0.34240E-04           0.38051E-04           0.34240E-04           0.25399E-04  
         0.15088E-04          -0.69409E-06          -0.13923E-05           0.23586E-04           0.66013E-04           0.18428E-03  
         0.50870E-03           0.10347E-02           0.13605E-02           0.11155E-02           0.52805E-03           0.62418E-04  
        -0.93945E-04          -0.17308E-03           0.15790E-03           0.10667E-02           0.21519E-02           0.26319E-02  
         0.20630E-02           0.10347E-02           0.35271E-03           0.10401E-03           0.33614E-04           0.40088E-05  
        -0.20184E-05           0.16415E-04           0.29684E-04           0.30300E-04           0.29324E-04           0.30300E-04  
         0.29684E-04           0.16415E-04          -0.20184E-05           0.40088E-05           0.33614E-04           0.10401E-03  
         0.35271E-03           0.10347E-02           0.20630E-02           0.26319E-02           0.21519E-02           0.10667E-02  
         0.15790E-03          -0.17308E-03          -0.28346E-03           0.87167E-04           0.11073E-02           0.24146E-02  
         0.31639E-02           0.26319E-02           0.13605E-02           0.44776E-03           0.11837E-03           0.39930E-04  
         0.11555E-04          -0.28869E-05           0.11665E-04           0.24180E-04           0.17801E-04           0.13364E-04  
         0.17801E-04           0.24180E-04           0.11665E-04          -0.28869E-05           0.11555E-04           0.39930E-04  
         0.11837E-03           0.44776E-03           0.13605E-02           0.26319E-02           0.31639E-02           0.24146E-02  
         0.11073E-02           0.87167E-04          -0.28346E-03          -0.33509E-03          -0.12053E-03           0.54454E-03  
         0.15983E-02           0.24146E-02           0.21519E-02           0.11155E-02           0.33592E-03           0.72331E-04  
         0.24972E-04           0.13681E-04          -0.13104E-05           0.41330E-05           0.14126E-04           0.75849E-05  
         0.27363E-05           0.75849E-05           0.14126E-04           0.41330E-05          -0.13104E-05           0.13681E-04  
         0.24972E-04           0.72331E-04           0.33592E-03           0.11155E-02           0.21519E-02           0.24146E-02  
         0.15983E-02           0.54454E-03          -0.12053E-03          -0.33509E-03          -0.24816E-03          -0.21237E-03  
         0.66114E-06           0.54454E-03           0.11073E-02           0.10667E-02           0.52805E-03           0.12467E-03  
         0.77450E-05          -0.18229E-05           0.43902E-05          -0.14150E-05          -0.87152E-06           0.60359E-05  
         0.25369E-05          -0.12722E-05           0.25369E-05           0.60359E-05          -0.87152E-06          -0.14150E-05  
         0.43902E-05          -0.18229E-05           0.77450E-05           0.12467E-03           0.52805E-03           0.10667E-02  
         0.11073E-02           0.54454E-03           0.66114E-06          -0.21237E-03          -0.24816E-03          -0.95909E-04  
        -0.14743E-03          -0.21237E-03          -0.12053E-03           0.87167E-04           0.15790E-03           0.62418E-04  
        -0.15966E-04          -0.29346E-04          -0.20711E-04          -0.86567E-05          -0.41690E-05          -0.22701E-05  
         0.23923E-06          -0.77744E-06          -0.22343E-05          -0.77744E-06           0.23923E-06          -0.22701E-05  
        -0.41690E-05          -0.86567E-05          -0.20711E-04          -0.29346E-04          -0.15966E-04           0.62418E-04  
         0.15790E-03           0.87167E-04          -0.12053E-03          -0.21237E-03          -0.14743E-03          -0.95909E-04  
        -0.24073E-04          -0.95909E-04          -0.24816E-03          -0.33509E-03          -0.28346E-03          -0.17308E-03  
        -0.93945E-04          -0.56256E-04          -0.39753E-04          -0.26706E-04          -0.14133E-04          -0.56272E-05  
        -0.23217E-05          -0.24221E-05          -0.24488E-05          -0.23110E-05          -0.24488E-05          -0.24221E-05  
        -0.23217E-05          -0.56272E-05          -0.14133E-04          -0.26706E-04          -0.39753E-04          -0.56256E-04  
        -0.93945E-04          -0.17308E-03          -0.28346E-03          -0.33509E-03          -0.24816E-03          -0.95909E-04  
        -0.24073E-04          -0.95909E-04          -0.14743E-03          -0.21237E-03          -0.12053E-03           0.87167E-04  
         0.15790E-03           0.62418E-04          -0.15966E-04          -0.29346E-04          -0.20711E-04          -0.86567E-05  
        -0.41690E-05          -0.22701E-05           0.23923E-06          -0.77744E-06          -0.22343E-05          -0.77744E-06  
         0.23923E-06          -0.22701E-05          -0.41690E-05          -0.86567E-05          -0.20711E-04          -0.29346E-04  
        -0.15966E-04           0.62418E-04           0.15790E-03           0.87167E-04          -0.12053E-03          -0.21237E-03  
        -0.14743E-03          -0.95909E-04          -0.14743E-03          -0.16295E-03          -0.11791E-03           0.40985E-03  
         0.12119E-02           0.13410E-02           0.70632E-03           0.15907E-03          -0.14192E-05          -0.12100E-04  
        -0.17616E-05          -0.43434E-05          -0.25985E-05           0.85941E-05           0.55451E-05          -0.12870E-05  
        -0.25410E-05          -0.23768E-05          -0.11431E-05          -0.29089E-05          -0.94346E-05          -0.17976E-04  
        -0.23623E-04          -0.27805E-04          -0.49499E-04          -0.11357E-03          -0.22165E-03          -0.31358E-03  
        -0.31356E-03          -0.22836E-03          -0.14743E-03          -0.21237E-03          -0.11791E-03           0.12172E-03  
         0.12571E-02           0.30130E-02           0.34386E-02           0.20543E-02           0.63408E-03           0.10057E-03  
         0.12283E-04           0.53624E-05          -0.59837E-05          -0.13804E-05           0.18688E-04           0.14888E-04  
         0.27070E-05          -0.44861E-06           0.14065E-05           0.23273E-05           0.10115E-05          -0.86642E-06  
        -0.69874E-05          -0.83754E-05           0.63298E-05           0.44439E-04           0.82719E-04           0.30374E-04  
        -0.13383E-03          -0.28692E-03          -0.31356E-03          -0.21237E-03          -0.12053E-03           0.40985E-03  
         0.12571E-02           0.30175E-02           0.52948E-02           0.56758E-02           0.35060E-02           0.12083E-02  
         0.23898E-03           0.36464E-04           0.38964E-05          -0.91071E-05           0.44204E-05           0.28457E-04  
         0.23965E-04           0.10458E-04           0.66355E-05           0.10734E-04           0.84350E-05           0.39719E-05  
         0.13052E-04           0.17536E-04           0.21078E-04           0.61980E-04           0.18707E-03           0.37426E-03  
         0.42433E-03           0.20274E-03          -0.13383E-03          -0.31358E-03          -0.12053E-03           0.87167E-04  
         0.12119E-02           0.30130E-02           0.52948E-02           0.71519E-02           0.66884E-02           0.39286E-02  
         0.13626E-02           0.27827E-03           0.35973E-04          -0.44023E-05          -0.86971E-05           0.16036E-04  
         0.40322E-04           0.34432E-04           0.21804E-04           0.17937E-04           0.20193E-04           0.13387E-04  
         0.32247E-05           0.19362E-04           0.44451E-04           0.63021E-04           0.11932E-03           0.27961E-03  
         0.52424E-03           0.63252E-03           0.42433E-03           0.30374E-04          -0.22165E-03           0.87167E-04  
         0.15790E-03           0.13410E-02           0.34386E-02           0.56758E-02           0.66884E-02           0.54777E-02  
         0.29199E-02           0.95352E-03           0.18521E-03           0.16527E-04          -0.94927E-05          -0.30362E-05  
         0.27288E-04           0.50315E-04           0.46651E-04           0.35747E-04           0.28754E-04           0.23181E-04  
         0.14201E-04           0.21214E-05           0.13020E-04           0.49126E-04           0.83403E-04           0.13536E-03  
         0.25876E-03           0.44154E-03           0.52424E-03           0.37426E-03           0.82719E-04          -0.11357E-03  
         0.15790E-03           0.62418E-04           0.70632E-03           0.20543E-02           0.35060E-02           0.39286E-02  
         0.29199E-02           0.14002E-02           0.41923E-03           0.73861E-04          -0.12818E-05          -0.13117E-04  
         0.86876E-06           0.30860E-04           0.49314E-04           0.51011E-04           0.44167E-04           0.33136E-04  
         0.19169E-04           0.10322E-04           0.16278E-05           0.55658E-05           0.39448E-04           0.75713E-04  
         0.11037E-03           0.17450E-03           0.25876E-03           0.27961E-03           0.18707E-03           0.44439E-04  
        -0.49499E-04           0.62418E-04          -0.15966E-04           0.15907E-03           0.63408E-03           0.12083E-02  
         0.13626E-02           0.95352E-03           0.41923E-03           0.11500E-03           0.12146E-04          -0.13939E-04  
        -0.18641E-04           0.22691E-05           0.29628E-04           0.39024E-04           0.41388E-04           0.38303E-04  