 DIM-GROUP
 3  1
 PRIMVEC
 1.8521202301E+01   0.0000000000E+00   0.0000000000E+00
 0.0000000000E+00   1.8521202301E+01   0.0000000000E+00
 0.0000000000E+00   0.0000000000E+00   1.8521202301E+01
 PRIMCOORD
          21  1
       14    0.0000000000E+00    0.0000000000E+00    0.0000000000E+00
       14    1.8804372284E+00   -1.8804372284E+00   -1.8804372284E+00
       14   -1.8804372284E+00    1.8804372284E+00   -1.8804372284E+00
       14   -1.8804372284E+00   -1.8804372284E+00    1.8804372284E+00
       14    1.8804372284E+00    1.8804372284E+00    1.8804372284E+00
        8    9.2904949682E-01   -9.2904949682E-01   -9.2904949682E-01
        8   -9.2904949682E-01    9.2904949682E-01   -9.2904949682E-01
        8   -9.2904949682E-01   -9.2904949682E-01    9.2904949682E-01
        8    9.2904949682E-01    9.2904949682E-01    9.2904949682E-01
        1    1.5645349042E+00   -1.5645349042E+00   -3.3105335111E+00
        1    1.5645349042E+00   -3.3105335111E+00   -1.5645349042E+00
        1    3.3105335111E+00   -1.5645349042E+00   -1.5645349042E+00
        1   -1.5645349042E+00    1.5645349042E+00   -3.3105335111E+00
        1   -1.5645349042E+00    3.3105335111E+00   -1.5645349042E+00
        1   -3.3105335111E+00    1.5645349042E+00   -1.5645349042E+00
        1   -1.5645349042E+00   -1.5645349042E+00    3.3105335111E+00
        1   -1.5645349042E+00   -3.3105335111E+00    1.5645349042E+00
        1   -3.3105335111E+00   -1.5645349042E+00    1.5645349042E+00
        1    3.3105335111E+00    1.5645349042E+00    1.5645349042E+00
        1    1.5645349042E+00    3.3105335111E+00    1.5645349042E+00
        1    1.5645349042E+00    1.5645349042E+00    3.3105335111E+00
 ATOMS
       14    0.0000000000E+00    0.0000000000E+00    0.0000000000E+00
       14    1.8804372284E+00   -1.8804372284E+00   -1.8804372284E+00
       14   -1.8804372284E+00    1.8804372284E+00   -1.8804372284E+00
       14   -1.8804372284E+00   -1.8804372284E+00    1.8804372284E+00
       14    1.8804372284E+00    1.8804372284E+00    1.8804372284E+00
        8    9.2904949682E-01   -9.2904949682E-01   -9.2904949682E-01
        8   -9.2904949682E-01    9.2904949682E-01   -9.2904949682E-01
        8   -9.2904949682E-01   -9.2904949682E-01    9.2904949682E-01
        8    9.2904949682E-01    9.2904949682E-01    9.2904949682E-01
        1    1.5645349042E+00   -1.5645349042E+00   -3.3105335111E+00
        1    1.5645349042E+00   -3.3105335111E+00   -1.5645349042E+00
        1    3.3105335111E+00   -1.5645349042E+00   -1.5645349042E+00
        1   -1.5645349042E+00    1.5645349042E+00   -3.3105335111E+00
        1   -1.5645349042E+00    3.3105335111E+00   -1.5645349042E+00
        1   -3.3105335111E+00    1.5645349042E+00   -1.5645349042E+00
        1   -1.5645349042E+00   -1.5645349042E+00    3.3105335111E+00
        1   -1.5645349042E+00   -3.3105335111E+00    1.5645349042E+00
        1   -3.3105335111E+00   -1.5645349042E+00    1.5645349042E+00
        1    3.3105335111E+00    1.5645349042E+00    1.5645349042E+00
        1    1.5645349042E+00    3.3105335111E+00    1.5645349042E+00
        1    1.5645349042E+00    1.5645349042E+00    3.3105335111E+00
 BEGIN_BLOCK_DATAGRID3D
 datagrids
 DATAGRID_3D_DENSITY
          49          49          49
 0.0 0.0 0.0 
 1.8521202301E+01   0.0000000000E+00   0.0000000000E+00
 0.0000000000E+00   1.8521202301E+01   0.0000000000E+00
 0.0000000000E+00   0.0000000000E+00   1.8521202301E+01
        -0.29719E-04          -0.54290E-04          -0.95042E-04          -0.85371E-04          -0.36471E-04          -0.10342E-04  
        -0.44510E-05          -0.23377E-05          -0.29494E-05          -0.20654E-05          -0.12525E-05          -0.74599E-06  
        -0.25420E-06          -0.89503E-07          -0.15528E-07          -0.63796E-07           0.23396E-08           0.50101E-08  
         0.12124E-07           0.84955E-08          -0.22139E-08           0.33603E-08           0.48414E-08           0.14853E-07  
         0.70098E-08           0.14853E-07           0.48414E-08           0.33603E-08          -0.22139E-08           0.84955E-08  
         0.12124E-07           0.50101E-08           0.23396E-08          -0.63796E-07          -0.15528E-07          -0.89503E-07  
        -0.25420E-06          -0.74599E-06          -0.12525E-05          -0.20654E-05          -0.29494E-05          -0.23377E-05  
        -0.44510E-05          -0.10342E-04          -0.36471E-04          -0.85371E-04          -0.95042E-04          -0.54290E-04  
        -0.29719E-04          -0.54290E-04          -0.18712E-04           0.23155E-03           0.65105E-03           0.73480E-03  
         0.37270E-03           0.60845E-04          -0.26046E-05           0.16948E-05          -0.12542E-05          -0.14282E-05  
        -0.67268E-06           0.11571E-05           0.10508E-05           0.70165E-07           0.74659E-08           0.64454E-07  
         0.30976E-07           0.29292E-07           0.21542E-07           0.50591E-08           0.34054E-07           0.19247E-07  
         0.47577E-07           0.10210E-06           0.47577E-07           0.19247E-07           0.34054E-07           0.50591E-08  
         0.21542E-07           0.29292E-07           0.30976E-07           0.64454E-07           0.74659E-08           0.70165E-07  
         0.10508E-05           0.11571E-05          -0.67268E-06          -0.14282E-05          -0.12542E-05           0.16948E-05  
        -0.26046E-05           0.60845E-04           0.37270E-03           0.73480E-03           0.65105E-03           0.23155E-03  
        -0.18712E-04          -0.54290E-04          -0.95042E-04           0.23155E-03           0.11960E-02           0.21794E-02  
         0.20520E-02           0.94213E-03           0.14069E-03          -0.19712E-05           0.10406E-04           0.33015E-06  
        -0.15713E-05           0.43236E-06           0.49869E-05           0.31951E-05           0.17209E-06           0.39373E-07  
         0.23981E-07           0.11242E-06           0.88072E-07           0.71381E-07           0.14945E-07           0.50500E-07  
         0.31345E-07           0.40044E-07           0.13567E-06           0.40044E-07           0.31345E-07           0.50500E-07  
         0.14945E-07           0.71381E-07           0.88072E-07           0.11242E-06           0.23981E-07           0.39373E-07  
         0.17209E-06           0.31951E-05           0.49869E-05           0.43236E-06          -0.15713E-05           0.33015E-06  
         0.10406E-04          -0.19712E-05           0.14069E-03           0.94213E-03           0.20520E-02           0.21794E-02  
         0.11960E-02           0.23155E-03          -0.95042E-04          -0.85371E-04           0.65105E-03           0.21794E-02  
         0.30635E-02           0.24165E-02           0.97274E-03           0.12286E-03          -0.15544E-06           0.11557E-04  
         0.88415E-06          -0.52442E-06           0.43833E-05           0.93579E-05           0.38698E-05           0.57009E-07  
        -0.21260E-07           0.12733E-06           0.44879E-06           0.11880E-06           0.11701E-06           0.48276E-07  
         0.26405E-07           0.67483E-07           0.33609E-07           0.36281E-07           0.33609E-07           0.67483E-07  
         0.26405E-07           0.48276E-07           0.11701E-06           0.11880E-06           0.44879E-06           0.12733E-06  
        -0.21260E-07           0.57009E-07           0.38698E-05           0.93579E-05           0.43833E-05          -0.52442E-06  
         0.88415E-06           0.11557E-04          -0.15544E-06           0.12286E-03           0.97274E-03           0.24165E-02  
         0.30635E-02           0.21794E-02           0.65105E-03          -0.85371E-04          -0.36471E-04           0.73480E-03  
         0.20520E-02           0.24165E-02           0.16146E-02           0.55818E-03           0.54169E-04          -0.37267E-05  
         0.28237E-05          -0.98101E-07           0.24704E-05           0.10668E-04           0.11298E-04           0.25904E-05  
        -0.27003E-07          -0.27652E-07           0.53562E-06           0.65656E-06           0.13935E-07           0.17953E-06  
         0.12994E-06           0.30015E-07           0.70526E-07           0.80050E-07           0.13201E-08           0.80050E-07  
         0.70526E-07           0.30015E-07           0.12994E-06           0.17953E-06           0.13935E-07           0.65656E-06  
         0.53562E-06          -0.27652E-07          -0.27003E-07           0.25904E-05           0.11298E-04           0.10668E-04  
         0.24704E-05          -0.98101E-07           0.28237E-05          -0.37267E-05           0.54169E-04           0.55818E-03  
         0.16146E-02           0.24165E-02           0.20520E-02           0.73480E-03          -0.36471E-04          -0.10342E-04  
         0.37270E-03           0.94213E-03           0.97274E-03           0.55818E-03           0.15797E-03           0.16979E-05  
        -0.98850E-05          -0.43228E-05          -0.64221E-06           0.67353E-05           0.14936E-04           0.94865E-05  
         0.11124E-05           0.44561E-07          -0.17421E-07           0.67163E-06           0.33330E-06           0.11566E-06  
         0.25744E-06           0.11709E-06           0.11150E-06           0.13555E-07           0.80070E-07           0.70235E-09  
         0.80070E-07           0.13555E-07           0.11150E-06           0.11709E-06           0.25744E-06           0.11566E-06  
         0.33330E-06           0.67163E-06          -0.17421E-07           0.44561E-07           0.11124E-05           0.94865E-05  
         0.14936E-04           0.67353E-05          -0.64221E-06          -0.43228E-05          -0.98850E-05           0.16979E-05  
         0.15797E-03           0.55818E-03           0.97274E-03           0.94213E-03           0.37270E-03          -0.10342E-04  
        -0.44510E-05           0.60845E-04           0.14069E-03           0.12286E-03           0.54169E-04           0.16979E-05  
        -0.13391E-04          -0.99122E-05          -0.44278E-05           0.13361E-05           0.99092E-05           0.13419E-04  
         0.56164E-05           0.48253E-06           0.11053E-06           0.27348E-06           0.57578E-06           0.33298E-07  
         0.43169E-06           0.18052E-06           0.13689E-06           0.30631E-06           0.16782E-07           0.88250E-07  
        -0.47077E-09           0.88250E-07           0.16782E-07           0.30631E-06           0.13689E-06           0.18052E-06  
         0.43169E-06           0.33298E-07           0.57578E-06           0.27348E-06           0.11053E-06           0.48253E-06  
         0.56164E-05           0.13419E-04           0.99092E-05           0.13361E-05          -0.44278E-05          -0.99122E-05  
        -0.13391E-04           0.16979E-05           0.54169E-04           0.12286E-03           0.14069E-03           0.60845E-04  
        -0.44510E-05          -0.23377E-05          -0.26046E-05          -0.19712E-05          -0.15544E-06          -0.37267E-05  
        -0.98850E-05          -0.99122E-05          -0.59082E-05          -0.60381E-06           0.48640E-05           0.92256E-05  
         0.77752E-05           0.23836E-05           0.36071E-06           0.26599E-06           0.64948E-06           0.41706E-06  
         0.41805E-07           0.37283E-06           0.65435E-07           0.39631E-06           0.37910E-06           0.35798E-07  
         0.13313E-06           0.29339E-08           0.13313E-06           0.35798E-07           0.37910E-06           0.39631E-06  
         0.65435E-07           0.37283E-06           0.41805E-07           0.41706E-06           0.64948E-06           0.26599E-06  
         0.36071E-06           0.23836E-05           0.77752E-05           0.92256E-05           0.48640E-05          -0.60381E-06  
        -0.59082E-05          -0.99122E-05          -0.98850E-05          -0.37267E-05          -0.15544E-06          -0.19712E-05  
        -0.26046E-05          -0.23377E-05          -0.29494E-05           0.16948E-05           0.10406E-04           0.11557E-04  
         0.28237E-05          -0.43228E-05          -0.44278E-05          -0.60381E-06           0.40819E-05           0.62362E-05  
         0.53644E-05           0.28156E-05           0.76137E-06           0.25644E-06           0.32539E-06           0.39909E-06  
         0.17575E-06           0.19061E-06           0.10504E-06           0.15581E-06           0.50452E-06           0.20147E-06  
         0.71358E-07           0.16169E-06           0.51278E-07           0.16169E-06           0.71358E-07           0.20147E-06  
         0.50452E-06           0.15581E-06           0.10504E-06           0.19061E-06           0.17575E-06           0.39909E-06  
         0.32539E-06           0.25644E-06           0.76137E-06           0.28156E-05           0.53644E-05           0.62362E-05  
         0.40819E-05          -0.60381E-06          -0.44278E-05          -0.43228E-05           0.28237E-05           0.11557E-04  
         0.10406E-04           0.16948E-05          -0.29494E-05          -0.20654E-05          -0.12542E-05           0.33015E-06  
         0.88415E-06          -0.98101E-07          -0.64221E-06           0.13361E-05           0.48640E-05           0.62362E-05  
         0.43250E-05           0.18856E-05           0.59742E-06           0.15753E-06           0.14235E-06           0.18549E-06  
         0.52427E-07           0.15838E-06           0.19615E-06           0.81694E-08           0.26655E-06           0.26492E-06  
         0.47570E-07           0.78929E-07           0.62165E-07           0.61258E-07           0.62165E-07           0.78929E-07  
         0.47570E-07           0.26492E-06           0.26655E-06           0.81694E-08           0.19615E-06           0.15838E-06  
         0.52427E-07           0.18549E-06           0.14235E-06           0.15753E-06           0.59742E-06           0.18856E-05  
         0.43250E-05           0.62362E-05           0.48640E-05           0.13361E-05          -0.64221E-06          -0.98101E-07  
         0.88415E-06           0.33015E-06          -0.12542E-05          -0.20654E-05          -0.12525E-05          -0.14282E-05  
        -0.15713E-05          -0.52442E-06           0.24704E-05           0.67353E-05           0.99092E-05           0.92256E-05  
         0.53644E-05           0.18856E-05           0.45039E-06           0.16306E-06           0.16938E-06           0.21335E-06  
         0.65701E-07           0.61092E-07           0.19705E-06           0.48952E-07           0.75470E-07           0.21573E-06  
         0.62573E-07           0.13341E-07           0.67988E-07           0.23554E-07          -0.39410E-08           0.23554E-07  
         0.67988E-07           0.13341E-07           0.62573E-07           0.21573E-06           0.75470E-07           0.48952E-07  
         0.19705E-06           0.61092E-07           0.65701E-07           0.21335E-06           0.16938E-06           0.16306E-06  
         0.45039E-06           0.18856E-05           0.53644E-05           0.92256E-05           0.99092E-05           0.67353E-05  
         0.24704E-05          -0.52442E-06          -0.15713E-05          -0.14282E-05          -0.12525E-05          -0.74599E-06  
        -0.67268E-06           0.43236E-06           0.43833E-05           0.10668E-04           0.14936E-04           0.13419E-04  
         0.77752E-05           0.28156E-05           0.59742E-06           0.16306E-06           0.14556E-06           0.15841E-06  
         0.22248E-06           0.38699E-07           0.46649E-07           0.10917E-06           0.83599E-07           0.15593E-06  
         0.10191E-06           0.15086E-06           0.34382E-07           0.13270E-06           0.25628E-06           0.79084E-07  
         0.25628E-06           0.13270E-06           0.34382E-07           0.15086E-06           0.10191E-06           0.15593E-06  
         0.83599E-07           0.10917E-06           0.46649E-07           0.38699E-07           0.22248E-06           0.15841E-06  
         0.14556E-06           0.16306E-06           0.59742E-06           0.28156E-05           0.77752E-05           0.13419E-04  
         0.14936E-04           0.10668E-04           0.43833E-05           0.43236E-06          -0.67268E-06          -0.74599E-06  
        -0.25420E-06           0.11571E-05           0.49869E-05           0.93579E-05           0.11298E-04           0.94865E-05  
         0.56164E-05           0.23836E-05           0.76137E-06           0.15753E-06           0.16938E-06           0.15841E-06  
        -0.15620E-07           0.71216E-07           0.44167E-07           0.53684E-07           0.13816E-06           0.19385E-06  
         0.12168E-06           0.26710E-07           0.28035E-06           0.98357E-07           0.92939E-07           0.30937E-06  
         0.17428E-06           0.30937E-06           0.92939E-07           0.98357E-07           0.28035E-06           0.26710E-07  
         0.12168E-06           0.19385E-06           0.13816E-06           0.53684E-07           0.44167E-07           0.71216E-07  
        -0.15620E-07           0.15841E-06           0.16938E-06           0.15753E-06           0.76137E-06           0.23836E-05  
         0.56164E-05           0.94865E-05           0.11298E-04           0.93579E-05           0.49869E-05           0.11571E-05  
        -0.25420E-06          -0.89503E-07           0.10508E-05           0.31951E-05           0.38698E-05           0.25904E-05  
         0.11124E-05           0.48253E-06           0.36071E-06           0.25644E-06           0.14235E-06           0.21335E-06  
         0.22248E-06           0.71216E-07           0.30515E-07           0.13173E-07           0.72689E-07           0.11151E-06  
         0.10024E-06           0.86806E-07           0.19131E-07           0.13752E-06           0.97378E-07           0.13938E-07  
         0.82642E-07           0.67495E-07           0.82642E-07           0.13938E-07           0.97378E-07           0.13752E-06  
         0.19131E-07           0.86806E-07           0.10024E-06           0.11151E-06           0.72689E-07           0.13173E-07  
         0.30515E-07           0.71216E-07           0.22248E-06           0.21335E-06           0.14235E-06           0.25644E-06  
         0.36071E-06           0.48253E-06           0.11124E-05           0.25904E-05           0.38698E-05           0.31951E-05  
         0.10508E-05          -0.89503E-07          -0.15528E-07           0.70165E-07           0.17209E-06           0.57009E-07  
        -0.27003E-07           0.44561E-07           0.11053E-06           0.26599E-06           0.32539E-06           0.18549E-06  
         0.65701E-07           0.38699E-07           0.44167E-07           0.13173E-07           0.11285E-07           0.62546E-07  
         0.61699E-07           0.37919E-07           0.50666E-07           0.47270E-07           0.20026E-07           0.13286E-07  
         0.10929E-07           0.15632E-08          -0.91857E-10           0.15632E-08           0.10929E-07           0.13286E-07  
         0.20026E-07           0.47270E-07           0.50666E-07           0.37919E-07           0.61699E-07           0.62546E-07  
         0.11285E-07           0.13173E-07           0.44167E-07           0.38699E-07           0.65701E-07           0.18549E-06  
         0.32539E-06           0.26599E-06           0.11053E-06           0.44561E-07          -0.27003E-07           0.57009E-07  
         0.17209E-06           0.70165E-07          -0.15528E-07          -0.63796E-07           0.74659E-08           0.39373E-07  
        -0.21260E-07          -0.27652E-07          -0.17421E-07           0.27348E-06           0.64948E-06           0.39909E-06  
         0.52427E-07           0.61092E-07           0.46649E-07           0.53684E-07           0.72689E-07           0.62546E-07  
         0.34483E-07           0.53895E-07           0.11701E-06           0.27926E-07           0.53406E-07           0.13256E-06  
         0.47981E-07           0.23957E-07           0.45585E-07           0.40878E-07           0.45585E-07           0.23957E-07  
         0.47981E-07           0.13256E-06           0.53406E-07           0.27926E-07           0.11701E-06           0.53895E-07  
         0.34483E-07           0.62546E-07           0.72689E-07           0.53684E-07           0.46649E-07           0.61092E-07  
         0.52427E-07           0.39909E-06           0.64948E-06           0.27348E-06          -0.17421E-07          -0.27652E-07  
        -0.21260E-07           0.39373E-07           0.74659E-08          -0.63796E-07           0.23396E-08           0.64454E-07  
         0.23981E-07           0.12733E-06           0.53562E-06           0.67163E-06           0.57578E-06           0.41706E-06  
         0.17575E-06           0.15838E-06           0.19705E-06           0.10917E-06           0.13816E-06           0.11151E-06  
         0.61699E-07           0.53895E-07           0.37082E-08           0.72491E-07           0.57494E-07           0.75464E-08  
         0.71945E-07           0.73208E-07           0.40449E-07           0.31713E-07           0.31178E-07           0.31713E-07  
         0.40449E-07           0.73208E-07           0.71945E-07           0.75464E-08           0.57494E-07           0.72491E-07  
         0.37082E-08           0.53895E-07           0.61699E-07           0.11151E-06           0.13816E-06           0.10917E-06  
         0.19705E-06           0.15838E-06           0.17575E-06           0.41706E-06           0.57578E-06           0.67163E-06  
         0.53562E-06           0.12733E-06           0.23981E-07           0.64454E-07           0.23396E-08           0.50101E-08  
         0.30976E-07           0.11242E-06           0.44879E-06           0.65656E-06           0.33330E-06           0.33298E-07  
         0.41805E-07           0.19061E-06           0.19615E-06           0.48952E-07           0.83599E-07           0.19385E-06  
         0.10024E-06           0.37919E-07           0.11701E-06           0.72491E-07           0.39757E-08           0.35830E-07  
         0.40882E-07           0.13741E-07           0.18386E-07           0.15077E-07           0.18456E-08           0.74001E-08  
         0.18456E-08           0.15077E-07           0.18386E-07           0.13741E-07           0.40882E-07           0.35830E-07  
         0.39757E-08           0.72491E-07           0.11701E-06           0.37919E-07           0.10024E-06           0.19385E-06  
         0.83599E-07           0.48952E-07           0.19615E-06           0.19061E-06           0.41805E-07           0.33298E-07  
         0.33330E-06           0.65656E-06           0.44879E-06           0.11242E-06           0.30976E-07           0.50101E-08  
         0.12124E-07           0.29292E-07           0.88072E-07           0.11880E-06           0.13935E-07           0.11566E-06  
         0.43169E-06           0.37283E-06           0.10504E-06           0.81694E-08           0.75470E-07           0.15593E-06  
         0.12168E-06           0.86806E-07           0.50666E-07           0.27926E-07           0.57494E-07           0.35830E-07  
         0.64847E-08           0.70301E-07           0.13463E-06           0.82481E-07           0.18581E-07           0.10411E-07  
         0.92868E-08           0.10411E-07           0.18581E-07           0.82481E-07           0.13463E-06           0.70301E-07  
         0.64847E-08           0.35830E-07           0.57494E-07           0.27926E-07           0.50666E-07           0.86806E-07  
         0.12168E-06           0.15593E-06           0.75470E-07           0.81694E-08           0.10504E-06           0.37283E-06  
         0.43169E-06           0.11566E-06           0.13935E-07           0.11880E-06           0.88072E-07           0.29292E-07  
         0.12124E-07           0.84955E-08           0.21542E-07           0.71381E-07           0.11701E-06           0.17953E-06  
         0.25744E-06           0.18052E-06           0.65435E-07           0.15581E-06           0.26655E-06           0.21573E-06  
         0.10191E-06           0.26710E-07           0.19131E-07           0.47270E-07           0.53406E-07           0.75464E-08  
         0.40882E-07           0.70301E-07           0.17749E-07           0.72404E-07           0.70719E-07           0.10716E-07  
         0.98223E-08          -0.11450E-08           0.98223E-08           0.10716E-07           0.70719E-07           0.72404E-07  
         0.17749E-07           0.70301E-07           0.40882E-07           0.75464E-08           0.53406E-07           0.47270E-07  
         0.19131E-07           0.26710E-07           0.10191E-06           0.21573E-06           0.26655E-06           0.15581E-06  
         0.65435E-07           0.18052E-06           0.25744E-06           0.17953E-06           0.11701E-06           0.71381E-07  
         0.21542E-07           0.84955E-08          -0.22139E-08           0.50591E-08           0.14945E-07           0.48276E-07  
         0.12994E-06           0.11709E-06           0.13689E-06           0.39631E-06           0.50452E-06           0.26492E-06  
         0.62573E-07           0.15086E-06           0.28035E-06           0.13752E-06           0.20026E-07           0.13256E-06  
         0.71945E-07           0.13741E-07           0.13463E-06           0.72404E-07           0.39006E-08           0.17871E-07  
         0.25020E-07           0.45652E-07           0.37271E-07           0.45652E-07           0.25020E-07           0.17871E-07  
         0.39006E-08           0.72404E-07           0.13463E-06           0.13741E-07           0.71945E-07           0.13256E-06  
         0.20026E-07           0.13752E-06           0.28035E-06           0.15086E-06           0.62573E-07           0.26492E-06  
         0.50452E-06           0.39631E-06           0.13689E-06           0.11709E-06           0.12994E-06           0.48276E-07  
         0.14945E-07           0.50591E-08          -0.22139E-08           0.33603E-08           0.34054E-07           0.50500E-07  
         0.26405E-07           0.30015E-07           0.11150E-06           0.30631E-06           0.37910E-06           0.20147E-06  
         0.47570E-07           0.13341E-07           0.34382E-07           0.98357E-07           0.97378E-07           0.13286E-07  
         0.47981E-07           0.73208E-07           0.18386E-07           0.82481E-07           0.70719E-07           0.17871E-07  
         0.53475E-07           0.64961E-07           0.99161E-07           0.13327E-06           0.99161E-07           0.64961E-07  
         0.53475E-07           0.17871E-07           0.70719E-07           0.82481E-07           0.18386E-07           0.73208E-07  
         0.47981E-07           0.13286E-07           0.97378E-07           0.98357E-07           0.34382E-07           0.13341E-07  
         0.47570E-07           0.20147E-06           0.37910E-06           0.30631E-06           0.11150E-06           0.30015E-07  
         0.26405E-07           0.50500E-07           0.34054E-07           0.33603E-08           0.48414E-08           0.19247E-07  
         0.31345E-07           0.67483E-07           0.70526E-07           0.13555E-07           0.16782E-07           0.35798E-07  
         0.71358E-07           0.78929E-07           0.67988E-07           0.13270E-06           0.92939E-07           0.13938E-07  
         0.10929E-07           0.23957E-07           0.40449E-07           0.15077E-07           0.18581E-07           0.10716E-07  
         0.25020E-07           0.64961E-07           0.10136E-07           0.65469E-07           0.16672E-06           0.65469E-07  
         0.10136E-07           0.64961E-07           0.25020E-07           0.10716E-07           0.18581E-07           0.15077E-07  
         0.40449E-07           0.23957E-07           0.10929E-07           0.13938E-07           0.92939E-07           0.13270E-06  
         0.67988E-07           0.78929E-07           0.71358E-07           0.35798E-07           0.16782E-07           0.13555E-07  
         0.70526E-07           0.67483E-07           0.31345E-07           0.19247E-07           0.48414E-08           0.14853E-07  
         0.47577E-07           0.40044E-07           0.33609E-07           0.80050E-07           0.80070E-07           0.88250E-07  
         0.13313E-06           0.16169E-06           0.62165E-07           0.23554E-07           0.25628E-06           0.30937E-06  
         0.82642E-07           0.15632E-08           0.45585E-07           0.31713E-07           0.18456E-08           0.10411E-07  
         0.98223E-08           0.45652E-07           0.99161E-07           0.65469E-07           0.48859E-07           0.71103E-07  
         0.48859E-07           0.65469E-07           0.99161E-07           0.45652E-07           0.98223E-08           0.10411E-07  
         0.18456E-08           0.31713E-07           0.45585E-07           0.15632E-08           0.82642E-07           0.30937E-06  
         0.25628E-06           0.23554E-07           0.62165E-07           0.16169E-06           0.13313E-06           0.88250E-07  
         0.80070E-07           0.80050E-07           0.33609E-07           0.40044E-07           0.47577E-07           0.14853E-07  
         0.70098E-08           0.10210E-06           0.13567E-06           0.36281E-07           0.13201E-08           0.70235E-09  
        -0.47077E-09           0.29339E-08           0.51278E-07           0.61258E-07          -0.39410E-08           0.79084E-07  
         0.17428E-06           0.67495E-07          -0.91857E-10           0.40878E-07           0.31178E-07           0.74001E-08  