  ABINIT 9.2.2
  
ABI_PSPDIR  found in environment, with value /Users/ali/Desktop/JDFTX/build-withlibxc/pseudopotentials
-instrng: 147 lines of input have been read from file sth1_relax.in


--- !COMMENT
src_file: m_dtfil.F90
src_line: 1470
message: |
    Output file: sth1_relax.abo already exists.
...


--- !COMMENT
src_file: m_dtfil.F90
src_line: 1494
message: |
    Renaming old: sth1_relax.abo to: sth1_relax.abo0013
...


.Version 9.2.2 of ABINIT 
.(MPI version, prepared for a x86_64_darwin19.6.0_gnu10.2 computer) 

.Copyright (C) 1998-2020 ABINIT group . 
 ABINIT comes with ABSOLUTELY NO WARRANTY.
 It is free software, and you are welcome to redistribute it
 under certain conditions (GNU General Public License,
 see ~abinit/COPYING or http://www.gnu.org/copyleft/gpl.txt).

 ABINIT is a project of the Universite Catholique de Louvain,
 Corning Inc. and other collaborators, see ~abinit/doc/developers/contributors.txt .
 Please read https://docs.abinit.org/theory/acknowledgments for suggested
 acknowledgments of the ABINIT effort.
 For more information, see https://www.abinit.org .

.Starting date : Fri 12 Mar 2021.
- ( at 01h28 )
  

 ++++++++++++++++++++++++++++++++++++++++++++++++++++++++++++++++++++++++++++++

 === Build Information === 
  Version       : 9.2.2
  Build target  : x86_64_darwin19.6.0_gnu10.2
  Build date    : 20201112

 === Compiler Suite === 
  C compiler       : llvm12.0
  C++ compiler     : llvm12.0
  Fortran compiler : gnu10.2
  CFLAGS           : -g -O2 -mtune=native -mcpu=native
  CXXFLAGS         : -g -O2 -mtune=native -mcpu=native
  FCFLAGS          : -g -ffree-line-length-none -fallow-argument-mismatch -fallow-argume ...
  FC_LDFLAGS       : 

 === Optimizations === 
  Debug level        : basic
  Optimization level : standard
  Architecture       : unknown_unknown

 === Multicore === 
  Parallel build : yes
  Parallel I/O   : 
  openMP support : yes
  GPU support    : 

 === Connectors / Fallbacks === 
  LINALG flavor  : netlib
  FFT flavor     : fftw3
  HDF5           : yes
  NetCDF         : yes
  NetCDF Fortran : yes
  LibXC          : yes
  Wannier90      : yes

 === Experimental features === 
  Exports             : 
  GW double-precision : 

 ++++++++++++++++++++++++++++++++++++++++++++++++++++++++++++++++++++++++++++++


 ++++++++++++++++++++++++++++++++++++++++++++++++++++++++++++++++++++++++++++++
 Default optimizations:
   -O2 -mtune=native -march=native


 Optimizations for 43_ptgroups:
   -O0


 ++++++++++++++++++++++++++++++++++++++++++++++++++++++++++++++++++++++++++++++


 ++++++++++++++++++++++++++++++++++++++++++++++++++++++++++++++++++++++++++++++
 CPP options activated during the build:

                   CC_LLVM                  CXX_LLVM                    FC_GNU
 
 HAVE_FC_ALLOCATABLE_DT...             HAVE_FC_ASYNC         HAVE_FC_BACKTRACE
 
  HAVE_FC_COMMAND_ARGUMENT      HAVE_FC_COMMAND_LINE        HAVE_FC_CONTIGUOUS
 
           HAVE_FC_CPUTIME              HAVE_FC_EXIT             HAVE_FC_FLUSH
 
             HAVE_FC_GAMMA            HAVE_FC_GETENV   HAVE_FC_IEEE_ARITHMETIC
 
   HAVE_FC_IEEE_EXCEPTIONS          HAVE_FC_INT_QUAD             HAVE_FC_IOMSG
 
     HAVE_FC_ISO_C_BINDING  HAVE_FC_ISO_FORTRAN_2008        HAVE_FC_LONG_LINES
 
        HAVE_FC_MOVE_ALLOC  HAVE_FC_ON_THE_FLY_SHAPE           HAVE_FC_PRIVATE
 
         HAVE_FC_PROTECTED           HAVE_FC_SHIFTLR         HAVE_FC_STREAM_IO
 
            HAVE_FC_SYSTEM                HAVE_FFTW3            HAVE_FFTW3_MPI
 
          HAVE_FORTRAN2003                 HAVE_HDF5             HAVE_HDF5_MPI
 
        HAVE_LIBPAW_ABINIT      HAVE_LIBTETRA_ABINIT                HAVE_LIBXC
 
         HAVE_LINALG_AXPBY        HAVE_LINALG_GEMM3M     HAVE_LINALG_SCALAPACK
 
     HAVE_LINALG_ZDOTC_B*G     HAVE_LINALG_ZDOTU_B*G                  HAVE_MPI
 
                 HAVE_MPI2         HAVE_MPI2_INPLACE       HAVE_MPI_IALLGATHER
 
       HAVE_MPI_IALLREDUCE        HAVE_MPI_IALLTOALL       HAVE_MPI_IALLTOALLV
 
           HAVE_MPI_IBCAST         HAVE_MPI_IGATHERV        HAVE_MPI_INTEGER16
 
               HAVE_MPI_IO HAVE_MPI_TYPE_CREATE_S...               HAVE_NETCDF
 
       HAVE_NETCDF_FORTRAN   HAVE_NETCDF_FORTRAN_MPI           HAVE_NETCDF_MPI
 
         HAVE_OMP_COLLAPSE               HAVE_OPENMP         HAVE_TIMER_ABINIT
 
            HAVE_WANNIER90                  HAVE_XML                            
 ++++++++++++++++++++++++++++++++++++++++++++++++++++++++++++++++++++++++++++++

- input  file    -> sth1_relax.in
- output file    -> sth1_relax.abo
- root for input  files -> sth1_relaxi
- root for output files -> sth1_relaxo


--- !WARNING
src_file: m_nctk.F90
src_line: 564
message: |
    Netcdf lib does not support MPI-IO and: NetCDF: Parallel operation on file opened for non-parallel access
...

  Asked to delete not existent file: __TMP_FILE__

--- !WARNING
src_file: m_nctk.F90
src_line: 584
message: |
    The netcdf library does not support parallel IO, see message above
    Abinit won't be able to produce files in parallel e.g. when paral_kgb==1 is used.
    Action: install a netcdf4+HDF5 library with MPI-IO support.
...

ABI_PSPDIR  found in environment, with value /Users/ali/Desktop/JDFTX/build-withlibxc/pseudopotentials
-instrng: 147 lines of input have been read from file sth1_relax.in

 For atom type 1, psp file is /Users/ali/Desktop/JDFTX/build-withlibxc/pseudopotentials/H.psp8
 For atom type 2, psp file is /Users/ali/Desktop/JDFTX/build-withlibxc/pseudopotentials/O.psp8
 For atom type 3, psp file is /Users/ali/Desktop/JDFTX/build-withlibxc/pseudopotentials/Si.psp8
  read the values zionpsp=  1.0 , pspcod=   8 , lmax=   1
  read the values zionpsp=  6.0 , pspcod=   8 , lmax=   2
  read the values zionpsp=  4.0 , pspcod=   8 , lmax=   2

 inpspheads: deduce mpsang = 3, n1xccc = 2501.

======================================================= 
 invars1m : enter jdtset= 1

 symlatt: the Bravais lattice is cP (primitive cubic)
  xcart  is defined in input file (possibly in Angstrom)
 ingeo: takes atomic coordinates from input array xcart

--- !WARNING
src_file: m_ingeo.F90
src_line: 887
message: |
    The tolerance on symmetries =   1.000E-05 is bigger than 1.0e-8.
    In order to avoid spurious effects, the atomic coordinates have been
    symmetrized before storing them in the dataset internal variable.
    So, do not be surprised by the fact that your input variables (xcart, xred, ...)
    do not correspond to the ones echoed by ABINIT, the latter being used to do the calculations.
    In order to avoid this symmetrization (e.g. for specific debugging/development), decrease tolsym to 1.0e-8 or lower.
...


 symlatt: the Bravais lattice is cP (primitive cubic)

 symlatt: the Bravais lattice is cP (primitive cubic)
 symspgr: spgroup= 215  P-4 3 m   (=Td^1)
 symspgr: optical characteristics = isotropic

======================================================= 
 invars1m : enter jdtset= 2

 symlatt: the Bravais lattice is cP (primitive cubic)
  xcart  is defined in input file (possibly in Angstrom)
 ingeo: takes atomic coordinates from input array xcart

--- !WARNING
src_file: m_ingeo.F90
src_line: 887
message: |
    The tolerance on symmetries =   1.000E-05 is bigger than 1.0e-8.
    In order to avoid spurious effects, the atomic coordinates have been
    symmetrized before storing them in the dataset internal variable.
    So, do not be surprised by the fact that your input variables (xcart, xred, ...)
    do not correspond to the ones echoed by ABINIT, the latter being used to do the calculations.
    In order to avoid this symmetrization (e.g. for specific debugging/development), decrease tolsym to 1.0e-8 or lower.
...


 symlatt: the Bravais lattice is cP (primitive cubic)

 symlatt: the Bravais lattice is cP (primitive cubic)
 symspgr: spgroup= 215  P-4 3 m   (=Td^1)
 symspgr: optical characteristics = isotropic

======================================================= 
 invars1m : enter jdtset= 3

 symlatt: the Bravais lattice is cP (primitive cubic)
  xcart  is defined in input file (possibly in Angstrom)
 ingeo: takes atomic coordinates from input array xcart

--- !WARNING
src_file: m_ingeo.F90
src_line: 887
message: |
    The tolerance on symmetries =   1.000E-05 is bigger than 1.0e-8.
    In order to avoid spurious effects, the atomic coordinates have been
    symmetrized before storing them in the dataset internal variable.
    So, do not be surprised by the fact that your input variables (xcart, xred, ...)
    do not correspond to the ones echoed by ABINIT, the latter being used to do the calculations.
    In order to avoid this symmetrization (e.g. for specific debugging/development), decrease tolsym to 1.0e-8 or lower.
...


 symlatt: the Bravais lattice is cP (primitive cubic)

 symlatt: the Bravais lattice is cP (primitive cubic)
 symspgr: spgroup= 215  P-4 3 m   (=Td^1)
 symspgr: optical characteristics = isotropic

======================================================= 
 invars1m : enter jdtset= 4

 symlatt: the Bravais lattice is cP (primitive cubic)
  xcart  is defined in input file (possibly in Angstrom)
 ingeo: takes atomic coordinates from input array xcart

--- !WARNING
src_file: m_ingeo.F90
src_line: 887
message: |
    The tolerance on symmetries =   1.000E-05 is bigger than 1.0e-8.
    In order to avoid spurious effects, the atomic coordinates have been
    symmetrized before storing them in the dataset internal variable.
    So, do not be surprised by the fact that your input variables (xcart, xred, ...)
    do not correspond to the ones echoed by ABINIT, the latter being used to do the calculations.
    In order to avoid this symmetrization (e.g. for specific debugging/development), decrease tolsym to 1.0e-8 or lower.
...


 symlatt: the Bravais lattice is cP (primitive cubic)

 symlatt: the Bravais lattice is cP (primitive cubic)
 symspgr: spgroup= 215  P-4 3 m   (=Td^1)
 symspgr: optical characteristics = isotropic

======================================================= 
 invars1m : enter jdtset= 5

 symlatt: the Bravais lattice is cP (primitive cubic)
  xcart  is defined in input file (possibly in Angstrom)
 ingeo: takes atomic coordinates from input array xcart

--- !WARNING
src_file: m_ingeo.F90
src_line: 887
message: |
    The tolerance on symmetries =   1.000E-05 is bigger than 1.0e-8.
    In order to avoid spurious effects, the atomic coordinates have been
    symmetrized before storing them in the dataset internal variable.
    So, do not be surprised by the fact that your input variables (xcart, xred, ...)
    do not correspond to the ones echoed by ABINIT, the latter being used to do the calculations.
    In order to avoid this symmetrization (e.g. for specific debugging/development), decrease tolsym to 1.0e-8 or lower.
...


 symlatt: the Bravais lattice is cP (primitive cubic)

 symlatt: the Bravais lattice is cP (primitive cubic)
 symspgr: spgroup= 215  P-4 3 m   (=Td^1)
 symspgr: optical characteristics = isotropic

======================================================= 
 invars1m : enter jdtset= 6

 symlatt: the Bravais lattice is cP (primitive cubic)
  xcart  is defined in input file (possibly in Angstrom)
 ingeo: takes atomic coordinates from input array xcart

--- !WARNING
src_file: m_ingeo.F90
src_line: 887
message: |
    The tolerance on symmetries =   1.000E-05 is bigger than 1.0e-8.
    In order to avoid spurious effects, the atomic coordinates have been
    symmetrized before storing them in the dataset internal variable.
    So, do not be surprised by the fact that your input variables (xcart, xred, ...)
    do not correspond to the ones echoed by ABINIT, the latter being used to do the calculations.
    In order to avoid this symmetrization (e.g. for specific debugging/development), decrease tolsym to 1.0e-8 or lower.
...


 symlatt: the Bravais lattice is cP (primitive cubic)

 symlatt: the Bravais lattice is cP (primitive cubic)
 symspgr: spgroup= 215  P-4 3 m   (=Td^1)
 symspgr: optical characteristics = isotropic

======================================================= 
 invars1m : enter jdtset= 7

 symlatt: the Bravais lattice is cP (primitive cubic)
  xcart  is defined in input file (possibly in Angstrom)
 ingeo: takes atomic coordinates from input array xcart

--- !WARNING
src_file: m_ingeo.F90
src_line: 887
message: |
    The tolerance on symmetries =   1.000E-05 is bigger than 1.0e-8.
    In order to avoid spurious effects, the atomic coordinates have been
    symmetrized before storing them in the dataset internal variable.
    So, do not be surprised by the fact that your input variables (xcart, xred, ...)
    do not correspond to the ones echoed by ABINIT, the latter being used to do the calculations.
    In order to avoid this symmetrization (e.g. for specific debugging/development), decrease tolsym to 1.0e-8 or lower.
...


 symlatt: the Bravais lattice is cP (primitive cubic)

 symlatt: the Bravais lattice is cP (primitive cubic)
 symspgr: spgroup= 215  P-4 3 m   (=Td^1)
 symspgr: optical characteristics = isotropic

======================================================= 
 invars1m : enter jdtset= 8

 symlatt: the Bravais lattice is cP (primitive cubic)
  xcart  is defined in input file (possibly in Angstrom)
 ingeo: takes atomic coordinates from input array xcart

--- !WARNING
src_file: m_ingeo.F90
src_line: 887
message: |
    The tolerance on symmetries =   1.000E-05 is bigger than 1.0e-8.
    In order to avoid spurious effects, the atomic coordinates have been
    symmetrized before storing them in the dataset internal variable.
    So, do not be surprised by the fact that your input variables (xcart, xred, ...)
    do not correspond to the ones echoed by ABINIT, the latter being used to do the calculations.
    In order to avoid this symmetrization (e.g. for specific debugging/development), decrease tolsym to 1.0e-8 or lower.
...


 symlatt: the Bravais lattice is cP (primitive cubic)

 symlatt: the Bravais lattice is cP (primitive cubic)
 symspgr: spgroup= 215  P-4 3 m   (=Td^1)
 symspgr: optical characteristics = isotropic

======================================================= 
 invars1m : enter jdtset= 9

 symlatt: the Bravais lattice is cP (primitive cubic)
  xcart  is defined in input file (possibly in Angstrom)
 ingeo: takes atomic coordinates from input array xcart

--- !WARNING
src_file: m_ingeo.F90
src_line: 887
message: |
    The tolerance on symmetries =   1.000E-05 is bigger than 1.0e-8.
    In order to avoid spurious effects, the atomic coordinates have been
    symmetrized before storing them in the dataset internal variable.
    So, do not be surprised by the fact that your input variables (xcart, xred, ...)
    do not correspond to the ones echoed by ABINIT, the latter being used to do the calculations.
    In order to avoid this symmetrization (e.g. for specific debugging/development), decrease tolsym to 1.0e-8 or lower.
...


 symlatt: the Bravais lattice is cP (primitive cubic)

 symlatt: the Bravais lattice is cP (primitive cubic)
 symspgr: spgroup= 215  P-4 3 m   (=Td^1)
 symspgr: optical characteristics = isotropic

======================================================= 
 invars1m : enter jdtset= 10

 symlatt: the Bravais lattice is cP (primitive cubic)
  xcart  is defined in input file (possibly in Angstrom)
 ingeo: takes atomic coordinates from input array xcart

--- !WARNING
src_file: m_ingeo.F90
src_line: 887
message: |
    The tolerance on symmetries =   1.000E-05 is bigger than 1.0e-8.
    In order to avoid spurious effects, the atomic coordinates have been
    symmetrized before storing them in the dataset internal variable.
    So, do not be surprised by the fact that your input variables (xcart, xred, ...)
    do not correspond to the ones echoed by ABINIT, the latter being used to do the calculations.
    In order to avoid this symmetrization (e.g. for specific debugging/development), decrease tolsym to 1.0e-8 or lower.
...


 symlatt: the Bravais lattice is cP (primitive cubic)

 symlatt: the Bravais lattice is cP (primitive cubic)
 symspgr: spgroup= 215  P-4 3 m   (=Td^1)
 symspgr: optical characteristics = isotropic

======================================================= 
 invars1m : enter jdtset= 11

 symlatt: the Bravais lattice is cP (primitive cubic)
  xcart  is defined in input file (possibly in Angstrom)
 ingeo: takes atomic coordinates from input array xcart

--- !WARNING
src_file: m_ingeo.F90
src_line: 887
message: |
    The tolerance on symmetries =   1.000E-05 is bigger than 1.0e-8.
    In order to avoid spurious effects, the atomic coordinates have been
    symmetrized before storing them in the dataset internal variable.
    So, do not be surprised by the fact that your input variables (xcart, xred, ...)
    do not correspond to the ones echoed by ABINIT, the latter being used to do the calculations.
    In order to avoid this symmetrization (e.g. for specific debugging/development), decrease tolsym to 1.0e-8 or lower.
...


 symlatt: the Bravais lattice is cP (primitive cubic)

 symlatt: the Bravais lattice is cP (primitive cubic)
 symspgr: spgroup= 215  P-4 3 m   (=Td^1)
 symspgr: optical characteristics = isotropic

======================================================= 
 invars1m : enter jdtset= 12

 symlatt: the Bravais lattice is cP (primitive cubic)
  xcart  is defined in input file (possibly in Angstrom)
 ingeo: takes atomic coordinates from input array xcart

--- !WARNING
src_file: m_ingeo.F90
src_line: 887
message: |
    The tolerance on symmetries =   1.000E-05 is bigger than 1.0e-8.
    In order to avoid spurious effects, the atomic coordinates have been
    symmetrized before storing them in the dataset internal variable.
    So, do not be surprised by the fact that your input variables (xcart, xred, ...)
    do not correspond to the ones echoed by ABINIT, the latter being used to do the calculations.
    In order to avoid this symmetrization (e.g. for specific debugging/development), decrease tolsym to 1.0e-8 or lower.
...


 symlatt: the Bravais lattice is cP (primitive cubic)

 symlatt: the Bravais lattice is cP (primitive cubic)
 symspgr: spgroup= 215  P-4 3 m   (=Td^1)
 symspgr: optical characteristics = isotropic

======================================================= 
 invars1m : enter jdtset= 13

 symlatt: the Bravais lattice is cP (primitive cubic)
  xcart  is defined in input file (possibly in Angstrom)
 ingeo: takes atomic coordinates from input array xcart

--- !WARNING
src_file: m_ingeo.F90
src_line: 887
message: |
    The tolerance on symmetries =   1.000E-05 is bigger than 1.0e-8.
    In order to avoid spurious effects, the atomic coordinates have been
    symmetrized before storing them in the dataset internal variable.
    So, do not be surprised by the fact that your input variables (xcart, xred, ...)
    do not correspond to the ones echoed by ABINIT, the latter being used to do the calculations.
    In order to avoid this symmetrization (e.g. for specific debugging/development), decrease tolsym to 1.0e-8 or lower.
...


 symlatt: the Bravais lattice is cP (primitive cubic)

 symlatt: the Bravais lattice is cP (primitive cubic)
 symspgr: spgroup= 215  P-4 3 m   (=Td^1)
 symspgr: optical characteristics = isotropic

======================================================= 
 invars1m : enter jdtset= 14

 symlatt: the Bravais lattice is cP (primitive cubic)
  xcart  is defined in input file (possibly in Angstrom)
 ingeo: takes atomic coordinates from input array xcart

--- !WARNING
src_file: m_ingeo.F90
src_line: 887
message: |
    The tolerance on symmetries =   1.000E-05 is bigger than 1.0e-8.
    In order to avoid spurious effects, the atomic coordinates have been
    symmetrized before storing them in the dataset internal variable.
    So, do not be surprised by the fact that your input variables (xcart, xred, ...)
    do not correspond to the ones echoed by ABINIT, the latter being used to do the calculations.
    In order to avoid this symmetrization (e.g. for specific debugging/development), decrease tolsym to 1.0e-8 or lower.
...


 symlatt: the Bravais lattice is cP (primitive cubic)

 symlatt: the Bravais lattice is cP (primitive cubic)
 symspgr: spgroup= 215  P-4 3 m   (=Td^1)
 symspgr: optical characteristics = isotropic

======================================================= 
 invars1m : enter jdtset= 15

 symlatt: the Bravais lattice is cP (primitive cubic)
  xcart  is defined in input file (possibly in Angstrom)
 ingeo: takes atomic coordinates from input array xcart

--- !WARNING
src_file: m_ingeo.F90
src_line: 887
message: |
    The tolerance on symmetries =   1.000E-05 is bigger than 1.0e-8.
    In order to avoid spurious effects, the atomic coordinates have been
    symmetrized before storing them in the dataset internal variable.
    So, do not be surprised by the fact that your input variables (xcart, xred, ...)
    do not correspond to the ones echoed by ABINIT, the latter being used to do the calculations.
    In order to avoid this symmetrization (e.g. for specific debugging/development), decrease tolsym to 1.0e-8 or lower.
...


 symlatt: the Bravais lattice is cP (primitive cubic)

 symlatt: the Bravais lattice is cP (primitive cubic)
 symspgr: spgroup= 215  P-4 3 m   (=Td^1)
 symspgr: optical characteristics = isotropic
 dtset_chkneu: initialized the occupation numbers for occopt= 3
    spin up   values:
 dtset_chkneu: initialized the occupation numbers for occopt= 3
    spin up   values:
 dtset_chkneu: initialized the occupation numbers for occopt= 3
    spin up   values:
 dtset_chkneu: initialized the occupation numbers for occopt= 3
    spin up   values:
 dtset_chkneu: initialized the occupation numbers for occopt= 3
    spin up   values:
 dtset_chkneu: initialized the occupation numbers for occopt= 3
    spin up   values:
 dtset_chkneu: initialized the occupation numbers for occopt= 3
    spin up   values:
 dtset_chkneu: initialized the occupation numbers for occopt= 3
    spin up   values:
 dtset_chkneu: initialized the occupation numbers for occopt= 3
    spin up   values:
 dtset_chkneu: initialized the occupation numbers for occopt= 3
    spin up   values:
 dtset_chkneu: initialized the occupation numbers for occopt= 3
    spin up   values:
 dtset_chkneu: initialized the occupation numbers for occopt= 3
    spin up   values:
 dtset_chkneu: initialized the occupation numbers for occopt= 3
    spin up   values:
 dtset_chkneu: initialized the occupation numbers for occopt= 3
    spin up   values:
 dtset_chkneu: initialized the occupation numbers for occopt= 3
    spin up   values:

--- !WARNING
src_file: m_mpinfo.F90
src_line: 2275
message: |
    nproc_kpt= 4 >= nkpt= 1* nsppol= 2
    The number of processors is larger than nkpt*nsppol. This is a waste. (Ignore this warning if this is not a GS run)
...


--- !WARNING
src_file: m_mpi_setup.F90
src_line: 701
message: |
    Your number of spins*k-points (=2) will not distribute correctly
    with the current number of processors (=4).
    You will leave some empty.
    YOU ARE STRONGLY ADVICED TO ACTIVATE AUTOMATIC PARALLELIZATION!
    PUT "AUTOPARAL=1" IN THE INPUT FILE.
...

 For input ecut=  3.000000E+00 best grid ngfft=      24      24      24
       max ecut=  3.158273E+00

 ==== FFT mesh ====
  FFT mesh divisions ........................    24   24   24
  Augmented FFT divisions ...................    25   25   24
  FFT algorithm .............................   312
  FFT cache size ............................    16
 getmpw: optimal value of mpw= 840

--- !WARNING
src_file: m_mpinfo.F90
src_line: 2275
message: |
    nproc_kpt= 4 >= nkpt= 1* nsppol= 2
    The number of processors is larger than nkpt*nsppol. This is a waste. (Ignore this warning if this is not a GS run)
...


--- !WARNING
src_file: m_mpi_setup.F90
src_line: 701
message: |
    Your number of spins*k-points (=2) will not distribute correctly
    with the current number of processors (=4).
    You will leave some empty.
    YOU ARE STRONGLY ADVICED TO ACTIVATE AUTOMATIC PARALLELIZATION!
    PUT "AUTOPARAL=1" IN THE INPUT FILE.
...

 For input ecut=  5.000000E+00 best grid ngfft=      32      32      32
       max ecut=  5.614708E+00

 ==== FFT mesh ====
  FFT mesh divisions ........................    32   32   32
  Augmented FFT divisions ...................    33   33   32
  FFT algorithm .............................   312
  FFT cache size ............................    16
 getmpw: optimal value of mpw= 1856

--- !WARNING
src_file: m_mpinfo.F90
src_line: 2275
message: |
    nproc_kpt= 4 >= nkpt= 1* nsppol= 2
    The number of processors is larger than nkpt*nsppol. This is a waste. (Ignore this warning if this is not a GS run)
...


--- !WARNING
src_file: m_mpi_setup.F90
src_line: 701
message: |
    Your number of spins*k-points (=2) will not distribute correctly
    with the current number of processors (=4).
    You will leave some empty.
    YOU ARE STRONGLY ADVICED TO ACTIVATE AUTOMATIC PARALLELIZATION!
    PUT "AUTOPARAL=1" IN THE INPUT FILE.
...

 For input ecut=  7.000000E+00 best grid ngfft=      36      36      36
       max ecut=  7.106115E+00

 ==== FFT mesh ====
  FFT mesh divisions ........................    36   36   36
  Augmented FFT divisions ...................    37   37   36
  FFT algorithm .............................   312
  FFT cache size ............................    16
 getmpw: optimal value of mpw= 3016

--- !WARNING
src_file: m_mpinfo.F90
src_line: 2275
message: |
    nproc_kpt= 4 >= nkpt= 1* nsppol= 2
    The number of processors is larger than nkpt*nsppol. This is a waste. (Ignore this warning if this is not a GS run)
...


--- !WARNING
src_file: m_mpi_setup.F90
src_line: 701
message: |
    Your number of spins*k-points (=2) will not distribute correctly
    with the current number of processors (=4).
    You will leave some empty.
    YOU ARE STRONGLY ADVICED TO ACTIVATE AUTOMATIC PARALLELIZATION!
    PUT "AUTOPARAL=1" IN THE INPUT FILE.
...

 For input ecut=  9.000000E+00 best grid ngfft=      45      45      45
       max ecut=  1.061531E+01

 ==== FFT mesh ====
  FFT mesh divisions ........................    45   45   45
  Augmented FFT divisions ...................    45   45   45
  FFT algorithm .............................   312
  FFT cache size ............................    16
 getmpw: optimal value of mpw= 4272

--- !WARNING
src_file: m_mpinfo.F90
src_line: 2275
message: |
    nproc_kpt= 4 >= nkpt= 1* nsppol= 2
    The number of processors is larger than nkpt*nsppol. This is a waste. (Ignore this warning if this is not a GS run)
...


--- !WARNING
src_file: m_mpi_setup.F90
src_line: 701
message: |
    Your number of spins*k-points (=2) will not distribute correctly
    with the current number of processors (=4).
    You will leave some empty.
    YOU ARE STRONGLY ADVICED TO ACTIVATE AUTOMATIC PARALLELIZATION!
    PUT "AUTOPARAL=1" IN THE INPUT FILE.
...

 For input ecut=  1.100000E+01 best grid ngfft=      48      48      48
       max ecut=  1.263309E+01

 ==== FFT mesh ====
  FFT mesh divisions ........................    48   48   48
  Augmented FFT divisions ...................    49   49   48
  FFT algorithm .............................   312
  FFT cache size ............................    16
 getmpw: optimal value of mpw= 5904

--- !WARNING
src_file: m_mpinfo.F90
src_line: 2275
message: |
    nproc_kpt= 4 >= nkpt= 1* nsppol= 2
    The number of processors is larger than nkpt*nsppol. This is a waste. (Ignore this warning if this is not a GS run)
...


--- !WARNING
src_file: m_mpi_setup.F90
src_line: 701
message: |
    Your number of spins*k-points (=2) will not distribute correctly
    with the current number of processors (=4).
    You will leave some empty.
    YOU ARE STRONGLY ADVICED TO ACTIVATE AUTOMATIC PARALLELIZATION!
    PUT "AUTOPARAL=1" IN THE INPUT FILE.
...

 For input ecut=  1.300000E+01 best grid ngfft=      50      50      50
       max ecut=  1.370778E+01

 ==== FFT mesh ====
  FFT mesh divisions ........................    50   50   50
  Augmented FFT divisions ...................    51   51   50
  FFT algorithm .............................   312
  FFT cache size ............................    16
 getmpw: optimal value of mpw= 7568

--- !WARNING
src_file: m_mpinfo.F90
src_line: 2275
message: |
    nproc_kpt= 4 >= nkpt= 1* nsppol= 2
    The number of processors is larger than nkpt*nsppol. This is a waste. (Ignore this warning if this is not a GS run)
...


--- !WARNING
src_file: m_mpi_setup.F90
src_line: 701
message: |
    Your number of spins*k-points (=2) will not distribute correctly
    with the current number of processors (=4).
    You will leave some empty.
    YOU ARE STRONGLY ADVICED TO ACTIVATE AUTOMATIC PARALLELIZATION!
    PUT "AUTOPARAL=1" IN THE INPUT FILE.
...

 For input ecut=  1.500000E+01 best grid ngfft=      54      54      54
       max ecut=  1.598876E+01

 ==== FFT mesh ====
  FFT mesh divisions ........................    54   54   54
  Augmented FFT divisions ...................    55   55   54
  FFT algorithm .............................   312
  FFT cache size ............................    16
 getmpw: optimal value of mpw= 9448

--- !WARNING
src_file: m_mpinfo.F90
src_line: 2275
message: |
    nproc_kpt= 4 >= nkpt= 1* nsppol= 2
    The number of processors is larger than nkpt*nsppol. This is a waste. (Ignore this warning if this is not a GS run)
...


--- !WARNING
src_file: m_mpi_setup.F90
src_line: 701
message: |
    Your number of spins*k-points (=2) will not distribute correctly
    with the current number of processors (=4).
    You will leave some empty.
    YOU ARE STRONGLY ADVICED TO ACTIVATE AUTOMATIC PARALLELIZATION!
    PUT "AUTOPARAL=1" IN THE INPUT FILE.
...

 For input ecut=  1.700000E+01 best grid ngfft=      60      60      60
       max ecut=  1.973921E+01

 ==== FFT mesh ====
  FFT mesh divisions ........................    60   60   60
  Augmented FFT divisions ...................    61   61   60
  FFT algorithm .............................   312
  FFT cache size ............................    16
 getmpw: optimal value of mpw= 11296

--- !WARNING
src_file: m_mpinfo.F90
src_line: 2275
message: |
    nproc_kpt= 4 >= nkpt= 1* nsppol= 2
    The number of processors is larger than nkpt*nsppol. This is a waste. (Ignore this warning if this is not a GS run)
...


--- !WARNING
src_file: m_mpi_setup.F90
src_line: 701
message: |
    Your number of spins*k-points (=2) will not distribute correctly
    with the current number of processors (=4).
    You will leave some empty.
    YOU ARE STRONGLY ADVICED TO ACTIVATE AUTOMATIC PARALLELIZATION!
    PUT "AUTOPARAL=1" IN THE INPUT FILE.
...

 For input ecut=  1.900000E+01 best grid ngfft=      60      60      60
       max ecut=  1.973921E+01

 ==== FFT mesh ====
  FFT mesh divisions ........................    60   60   60
  Augmented FFT divisions ...................    61   61   60
  FFT algorithm .............................   312
  FFT cache size ............................    16
 getmpw: optimal value of mpw= 13264

--- !WARNING
src_file: m_mpinfo.F90
src_line: 2275
message: |
    nproc_kpt= 4 >= nkpt= 1* nsppol= 2
    The number of processors is larger than nkpt*nsppol. This is a waste. (Ignore this warning if this is not a GS run)
...


--- !WARNING
src_file: m_mpi_setup.F90
src_line: 701
message: |
    Your number of spins*k-points (=2) will not distribute correctly
    with the current number of processors (=4).
    You will leave some empty.
    YOU ARE STRONGLY ADVICED TO ACTIVATE AUTOMATIC PARALLELIZATION!
    PUT "AUTOPARAL=1" IN THE INPUT FILE.
...

 For input ecut=  2.100000E+01 best grid ngfft=      64      64      64
       max ecut=  2.245883E+01

 ==== FFT mesh ====
  FFT mesh divisions ........................    64   64   64
  Augmented FFT divisions ...................    65   65   64
  FFT algorithm .............................   312
  FFT cache size ............................    16
 getmpw: optimal value of mpw= 15408

--- !WARNING
src_file: m_mpinfo.F90
src_line: 2275
message: |
    nproc_kpt= 4 >= nkpt= 1* nsppol= 2
    The number of processors is larger than nkpt*nsppol. This is a waste. (Ignore this warning if this is not a GS run)
...


--- !WARNING
src_file: m_mpi_setup.F90
src_line: 701
message: |
    Your number of spins*k-points (=2) will not distribute correctly
    with the current number of processors (=4).
    You will leave some empty.
    YOU ARE STRONGLY ADVICED TO ACTIVATE AUTOMATIC PARALLELIZATION!
    PUT "AUTOPARAL=1" IN THE INPUT FILE.
...

 For input ecut=  2.300000E+01 best grid ngfft=      72      72      72
       max ecut=  2.842446E+01

 ==== FFT mesh ====
  FFT mesh divisions ........................    72   72   72
  Augmented FFT divisions ...................    73   73   72
  FFT algorithm .............................   312
  FFT cache size ............................    16
 getmpw: optimal value of mpw= 17784

--- !WARNING
src_file: m_mpinfo.F90
src_line: 2275
message: |
    nproc_kpt= 4 >= nkpt= 1* nsppol= 2
    The number of processors is larger than nkpt*nsppol. This is a waste. (Ignore this warning if this is not a GS run)
...


--- !WARNING
src_file: m_mpi_setup.F90
src_line: 701
message: |
    Your number of spins*k-points (=2) will not distribute correctly
    with the current number of processors (=4).
    You will leave some empty.
    YOU ARE STRONGLY ADVICED TO ACTIVATE AUTOMATIC PARALLELIZATION!
    PUT "AUTOPARAL=1" IN THE INPUT FILE.
...

 For input ecut=  2.500000E+01 best grid ngfft=      72      72      72
       max ecut=  2.842446E+01

 ==== FFT mesh ====
  FFT mesh divisions ........................    72   72   72
  Augmented FFT divisions ...................    73   73   72
  FFT algorithm .............................   312
  FFT cache size ............................    16
 getmpw: optimal value of mpw= 20336

--- !WARNING
src_file: m_mpinfo.F90
src_line: 2275
message: |
    nproc_kpt= 4 >= nkpt= 1* nsppol= 2
    The number of processors is larger than nkpt*nsppol. This is a waste. (Ignore this warning if this is not a GS run)
...


--- !WARNING
src_file: m_mpi_setup.F90
src_line: 701
message: |
    Your number of spins*k-points (=2) will not distribute correctly
    with the current number of processors (=4).
    You will leave some empty.
    YOU ARE STRONGLY ADVICED TO ACTIVATE AUTOMATIC PARALLELIZATION!
    PUT "AUTOPARAL=1" IN THE INPUT FILE.
...

 For input ecut=  2.700000E+01 best grid ngfft=      72      72      72
       max ecut=  2.842446E+01

 ==== FFT mesh ====
  FFT mesh divisions ........................    72   72   72
  Augmented FFT divisions ...................    73   73   72
  FFT algorithm .............................   312
  FFT cache size ............................    16
 getmpw: optimal value of mpw= 22496

--- !WARNING
src_file: m_mpinfo.F90
src_line: 2275
message: |
    nproc_kpt= 4 >= nkpt= 1* nsppol= 2
    The number of processors is larger than nkpt*nsppol. This is a waste. (Ignore this warning if this is not a GS run)
...


--- !WARNING
src_file: m_mpi_setup.F90
src_line: 701
message: |
    Your number of spins*k-points (=2) will not distribute correctly
    with the current number of processors (=4).
    You will leave some empty.
    YOU ARE STRONGLY ADVICED TO ACTIVATE AUTOMATIC PARALLELIZATION!
    PUT "AUTOPARAL=1" IN THE INPUT FILE.
...

 For input ecut=  2.900000E+01 best grid ngfft=      75      75      75
       max ecut=  3.002553E+01

 ==== FFT mesh ====
  FFT mesh divisions ........................    75   75   75
  Augmented FFT divisions ...................    75   75   75
  FFT algorithm .............................   312
  FFT cache size ............................    16
 getmpw: optimal value of mpw= 25064

--- !WARNING
src_file: m_mpinfo.F90
src_line: 2275
message: |
    nproc_kpt= 4 >= nkpt= 1* nsppol= 2
    The number of processors is larger than nkpt*nsppol. This is a waste. (Ignore this warning if this is not a GS run)
...


--- !WARNING
src_file: m_mpi_setup.F90
src_line: 701
message: |
    Your number of spins*k-points (=2) will not distribute correctly
    with the current number of processors (=4).
    You will leave some empty.
    YOU ARE STRONGLY ADVICED TO ACTIVATE AUTOMATIC PARALLELIZATION!
    PUT "AUTOPARAL=1" IN THE INPUT FILE.
...

 For input ecut=  3.100000E+01 best grid ngfft=      80      80      80
       max ecut=  3.509193E+01

 ==== FFT mesh ====
  FFT mesh divisions ........................    80   80   80
  Augmented FFT divisions ...................    81   81   80
  FFT algorithm .............................   312
  FFT cache size ............................    16
 getmpw: optimal value of mpw= 27832

 DATASET    1 : space group P-4 3 m (#215); Bravais cP (primitive cubic)

 getdim_nloc : deduce lmnmax  =  18, lnmax  =   6,
                      lmnmaxso=  18, lnmaxso=   6.
memory: analysis of memory needs
================================================================================
 Values of the parameters that define the memory need for DATASET  1.
     intxc =       0    ionmov =       0      iscf =       7    lmnmax =       6
     lnmax =       6     mgfft =      24  mpssoang =       3    mqgrid =    3001
     natom =      21  nloc_mem =       1    nspden =       2   nspinor =       1
    nsppol =       2      nsym =      24    n1xccc =    2501    ntypat =       3
    occopt =       3   xclevel =       1
-    mband =         100        mffmem =           1         mkmem =           1
       mpw =         840          nfft =       13824          nkpt =           1
================================================================================
P This job should need less than                      11.780 Mbytes of memory.
  Rough estimation (10% accuracy) of disk space for files :
_ WF disk file :      2.565 Mbytes ; DEN or POT disk file :      0.213 Mbytes.
================================================================================

 Biggest array : f_fftgr(disk), with      3.3770 MBytes.
 memana : allocated an array of      3.377 Mbytes, for testing purposes.
 memana: allocated      11.780Mbytes, for testing purposes. 
 The job will continue.

 DATASET    2 : space group P-4 3 m (#215); Bravais cP (primitive cubic)

 getdim_nloc : deduce lmnmax  =  18, lnmax  =   6,
                      lmnmaxso=  18, lnmaxso=   6.
memory: analysis of memory needs
================================================================================
 Values of the parameters that define the memory need for DATASET  2.
     intxc =       0    ionmov =       0      iscf =       7    lmnmax =       6
     lnmax =       6     mgfft =      32  mpssoang =       3    mqgrid =    3001
     natom =      21  nloc_mem =       1    nspden =       2   nspinor =       1
    nsppol =       2      nsym =      24    n1xccc =    2501    ntypat =       3
    occopt =       3   xclevel =       1
-    mband =         100        mffmem =           1         mkmem =           1
       mpw =        1856          nfft =       32768          nkpt =           1
================================================================================
P This job should need less than                      23.591 Mbytes of memory.
  Rough estimation (10% accuracy) of disk space for files :
_ WF disk file :      5.666 Mbytes ; DEN or POT disk file :      0.502 Mbytes.
================================================================================

 Biggest array : f_fftgr(disk), with      8.0020 MBytes.
 memana : allocated an array of      8.002 Mbytes, for testing purposes.
 memana: allocated      23.591Mbytes, for testing purposes. 
 The job will continue.

 DATASET    3 : space group P-4 3 m (#215); Bravais cP (primitive cubic)

 getdim_nloc : deduce lmnmax  =  18, lnmax  =   6,
                      lmnmaxso=  18, lnmaxso=   6.
memory: analysis of memory needs
================================================================================
 Values of the parameters that define the memory need for DATASET  3.
     intxc =       0    ionmov =       0      iscf =       7    lmnmax =       6
     lnmax =       6     mgfft =      36  mpssoang =       3    mqgrid =    3001
     natom =      21  nloc_mem =       1    nspden =       2   nspinor =       1
    nsppol =       2      nsym =      24    n1xccc =    2501    ntypat =       3
    occopt =       3   xclevel =       1
-    mband =         100        mffmem =           1         mkmem =           1
       mpw =        3016          nfft =       46656          nkpt =           1
================================================================================
P This job should need less than                      33.744 Mbytes of memory.
  Rough estimation (10% accuracy) of disk space for files :
_ WF disk file :      9.206 Mbytes ; DEN or POT disk file :      0.714 Mbytes.
================================================================================

 Biggest array : f_fftgr(disk), with     11.3926 MBytes.
 memana : allocated an array of     11.393 Mbytes, for testing purposes.
 memana: allocated      33.744Mbytes, for testing purposes. 
 The job will continue.

 DATASET    4 : space group P-4 3 m (#215); Bravais cP (primitive cubic)

 getdim_nloc : deduce lmnmax  =  18, lnmax  =   6,
                      lmnmaxso=  18, lnmaxso=   6.
memory: analysis of memory needs
================================================================================
 Values of the parameters that define the memory need for DATASET  4.
     intxc =       0    ionmov =       0      iscf =       7    lmnmax =       6
     lnmax =       6     mgfft =      45  mpssoang =       3    mqgrid =    3001
     natom =      21  nloc_mem =       1    nspden =       2   nspinor =       1
    nsppol =       2      nsym =      24    n1xccc =    2501    ntypat =       3
    occopt =       3   xclevel =       1
-    mband =         100        mffmem =           1         mkmem =           1
       mpw =        4272          nfft =       91125          nkpt =           1
================================================================================
P This job should need less than                      57.222 Mbytes of memory.
  Rough estimation (10% accuracy) of disk space for files :
_ WF disk file :     13.039 Mbytes ; DEN or POT disk file :      1.392 Mbytes.
================================================================================

 Biggest array : f_fftgr(disk), with     22.2493 MBytes.
 memana : allocated an array of     22.249 Mbytes, for testing purposes.
 memana: allocated      57.222Mbytes, for testing purposes. 
 The job will continue.

 DATASET    5 : space group P-4 3 m (#215); Bravais cP (primitive cubic)

 getdim_nloc : deduce lmnmax  =  18, lnmax  =   6,
                      lmnmaxso=  18, lnmaxso=   6.
memory: analysis of memory needs
================================================================================
 Values of the parameters that define the memory need for DATASET  5.
     intxc =       0    ionmov =       0      iscf =       7    lmnmax =       6
     lnmax =       6     mgfft =      48  mpssoang =       3    mqgrid =    3001
     natom =      21  nloc_mem =       1    nspden =       2   nspinor =       1
    nsppol =       2      nsym =      24    n1xccc =    2501    ntypat =       3
    occopt =       3   xclevel =       1
-    mband =         100        mffmem =           1         mkmem =           1
       mpw =        5904          nfft =      110592          nkpt =           1
================================================================================
P This job should need less than                      71.589 Mbytes of memory.
  Rough estimation (10% accuracy) of disk space for files :
_ WF disk file :     18.020 Mbytes ; DEN or POT disk file :      1.690 Mbytes.
================================================================================

 Biggest array : f_fftgr(disk), with     27.0020 MBytes.
 memana : allocated an array of     27.002 Mbytes, for testing purposes.
 memana: allocated      71.589Mbytes, for testing purposes. 
 The job will continue.

 DATASET    6 : space group P-4 3 m (#215); Bravais cP (primitive cubic)

 getdim_nloc : deduce lmnmax  =  18, lnmax  =   6,
                      lmnmaxso=  18, lnmaxso=   6.
memory: analysis of memory needs
================================================================================
 Values of the parameters that define the memory need for DATASET  6.
     intxc =       0    ionmov =       0      iscf =       7    lmnmax =       6
     lnmax =       6     mgfft =      50  mpssoang =       3    mqgrid =    3001
     natom =      21  nloc_mem =       1    nspden =       2   nspinor =       1
    nsppol =       2      nsym =      24    n1xccc =    2501    ntypat =       3
    occopt =       3   xclevel =       1
-    mband =         100        mffmem =           1         mkmem =           1
       mpw =        7568          nfft =      125000          nkpt =           1
================================================================================
P This job should need less than                      83.778 Mbytes of memory.
  Rough estimation (10% accuracy) of disk space for files :
_ WF disk file :     23.098 Mbytes ; DEN or POT disk file :      1.909 Mbytes.
================================================================================

 Biggest array : f_fftgr(disk), with     30.5196 MBytes.
 memana : allocated an array of     30.520 Mbytes, for testing purposes.
 memana: allocated      83.778Mbytes, for testing purposes. 
 The job will continue.

 DATASET    7 : space group P-4 3 m (#215); Bravais cP (primitive cubic)

 getdim_nloc : deduce lmnmax  =  18, lnmax  =   6,
                      lmnmaxso=  18, lnmaxso=   6.
memory: analysis of memory needs
================================================================================
 Values of the parameters that define the memory need for DATASET  7.
     intxc =       0    ionmov =       0      iscf =       7    lmnmax =       6
     lnmax =       6     mgfft =      54  mpssoang =       3    mqgrid =    3001
     natom =      21  nloc_mem =       1    nspden =       2   nspinor =       1
    nsppol =       2      nsym =      24    n1xccc =    2501    ntypat =       3
    occopt =       3   xclevel =       1
-    mband =         100        mffmem =           1         mkmem =           1
       mpw =        9448          nfft =      157464          nkpt =           1
================================================================================
P This job should need less than                     104.480 Mbytes of memory.
  Rough estimation (10% accuracy) of disk space for files :
_ WF disk file :     28.835 Mbytes ; DEN or POT disk file :      2.405 Mbytes.
================================================================================

 Biggest array : f_fftgr(disk), with     38.4454 MBytes.
 memana : allocated an array of     38.445 Mbytes, for testing purposes.
 memana: allocated     104.480Mbytes, for testing purposes. 
 The job will continue.

 DATASET    8 : space group P-4 3 m (#215); Bravais cP (primitive cubic)

 getdim_nloc : deduce lmnmax  =  18, lnmax  =   6,
                      lmnmaxso=  18, lnmaxso=   6.
memory: analysis of memory needs
================================================================================
 Values of the parameters that define the memory need for DATASET  8.
     intxc =       0    ionmov =       0      iscf =       7    lmnmax =       6
     lnmax =       6     mgfft =      60  mpssoang =       3    mqgrid =    3001
     natom =      21  nloc_mem =       1    nspden =       2   nspinor =       1
    nsppol =       2      nsym =      24    n1xccc =    2501    ntypat =       3
    occopt =       3   xclevel =       1
-    mband =         100        mffmem =           1         mkmem =           1
       mpw =       11296          nfft =      216000          nkpt =           1
================================================================================
P This job should need less than                     136.226 Mbytes of memory.
  Rough estimation (10% accuracy) of disk space for files :
_ WF disk file :     34.475 Mbytes ; DEN or POT disk file :      3.298 Mbytes.
================================================================================

 Biggest array : f_fftgr(disk), with     52.7364 MBytes.
 memana : allocated an array of     52.736 Mbytes, for testing purposes.
 memana: allocated     136.226Mbytes, for testing purposes. 
 The job will continue.

 DATASET    9 : space group P-4 3 m (#215); Bravais cP (primitive cubic)

 getdim_nloc : deduce lmnmax  =  18, lnmax  =   6,
                      lmnmaxso=  18, lnmaxso=   6.
memory: analysis of memory needs
================================================================================
 Values of the parameters that define the memory need for DATASET  9.
     intxc =       0    ionmov =       0      iscf =       7    lmnmax =       6
     lnmax =       6     mgfft =      60  mpssoang =       3    mqgrid =    3001
     natom =      21  nloc_mem =       1    nspden =       2   nspinor =       1
    nsppol =       2      nsym =      24    n1xccc =    2501    ntypat =       3
    occopt =       3   xclevel =       1
-    mband =         100        mffmem =           1         mkmem =           1
       mpw =       13264          nfft =      216000          nkpt =           1
================================================================================
P This job should need less than                     143.343 Mbytes of memory.
  Rough estimation (10% accuracy) of disk space for files :
_ WF disk file :     40.481 Mbytes ; DEN or POT disk file :      3.298 Mbytes.
================================================================================

 Biggest array : f_fftgr(disk), with     52.7364 MBytes.
 memana : allocated an array of     52.736 Mbytes, for testing purposes.
 memana: allocated     143.343Mbytes, for testing purposes. 
 The job will continue.

 DATASET   10 : space group P-4 3 m (#215); Bravais cP (primitive cubic)

 getdim_nloc : deduce lmnmax  =  18, lnmax  =   6,
                      lmnmaxso=  18, lnmaxso=   6.
memory: analysis of memory needs
================================================================================
 Values of the parameters that define the memory need for DATASET 10.
     intxc =       0    ionmov =       0      iscf =       7    lmnmax =       6
     lnmax =       6     mgfft =      64  mpssoang =       3    mqgrid =    3095
     natom =      21  nloc_mem =       1    nspden =       2   nspinor =       1
    nsppol =       2      nsym =      24    n1xccc =    2501    ntypat =       3
    occopt =       3   xclevel =       1
-    mband =         100        mffmem =           1         mkmem =           1
       mpw =       15408          nfft =      262144          nkpt =           1
================================================================================
P This job should need less than                     170.881 Mbytes of memory.
  Rough estimation (10% accuracy) of disk space for files :
_ WF disk file :     47.023 Mbytes ; DEN or POT disk file :      4.002 Mbytes.
================================================================================

 Biggest array : f_fftgr(disk), with     64.0020 MBytes.
 memana : allocated an array of     64.002 Mbytes, for testing purposes.
 memana: allocated     170.881Mbytes, for testing purposes. 
 The job will continue.

 DATASET   11 : space group P-4 3 m (#215); Bravais cP (primitive cubic)

 getdim_nloc : deduce lmnmax  =  18, lnmax  =   6,
                      lmnmaxso=  18, lnmaxso=   6.
memory: analysis of memory needs
================================================================================
 Values of the parameters that define the memory need for DATASET 11.
     intxc =       0    ionmov =       0      iscf =       7    lmnmax =       6
     lnmax =       6     mgfft =      72  mpssoang =       3    mqgrid =    3239
     natom =      21  nloc_mem =       1    nspden =       2   nspinor =       1
    nsppol =       2      nsym =      24    n1xccc =    2501    ntypat =       3
    occopt =       3   xclevel =       1
-    mband =         100        mffmem =           1         mkmem =           1
       mpw =       17784          nfft =      373248          nkpt =           1
================================================================================
P This job should need less than                     227.072 Mbytes of memory.
  Rough estimation (10% accuracy) of disk space for files :
_ WF disk file :     54.274 Mbytes ; DEN or POT disk file :      5.697 Mbytes.
================================================================================

 Biggest array : f_fftgr(disk), with     91.1270 MBytes.
 memana : allocated an array of     91.127 Mbytes, for testing purposes.
 memana: allocated     227.072Mbytes, for testing purposes. 
 The job will continue.

 DATASET   12 : space group P-4 3 m (#215); Bravais cP (primitive cubic)

 getdim_nloc : deduce lmnmax  =  18, lnmax  =   6,
                      lmnmaxso=  18, lnmaxso=   6.
memory: analysis of memory needs
================================================================================
 Values of the parameters that define the memory need for DATASET 12.
     intxc =       0    ionmov =       0      iscf =       7    lmnmax =       6
     lnmax =       6     mgfft =      72  mpssoang =       3    mqgrid =    3377
     natom =      21  nloc_mem =       1    nspden =       2   nspinor =       1
    nsppol =       2      nsym =      24    n1xccc =    2501    ntypat =       3
    occopt =       3   xclevel =       1
-    mband =         100        mffmem =           1         mkmem =           1
       mpw =       20336          nfft =      373248          nkpt =           1
================================================================================
P This job should need less than                     236.347 Mbytes of memory.
  Rough estimation (10% accuracy) of disk space for files :
_ WF disk file :     62.063 Mbytes ; DEN or POT disk file :      5.697 Mbytes.
================================================================================

 Biggest array : f_fftgr(disk), with     91.1270 MBytes.
 memana : allocated an array of     91.127 Mbytes, for testing purposes.
 memana: allocated     236.347Mbytes, for testing purposes. 
 The job will continue.

 DATASET   13 : space group P-4 3 m (#215); Bravais cP (primitive cubic)

 getdim_nloc : deduce lmnmax  =  18, lnmax  =   6,
                      lmnmaxso=  18, lnmaxso=   6.
memory: analysis of memory needs
================================================================================
 Values of the parameters that define the memory need for DATASET 13.
     intxc =       0    ionmov =       0      iscf =       7    lmnmax =       6
     lnmax =       6     mgfft =      72  mpssoang =       3    mqgrid =    3509
     natom =      21  nloc_mem =       1    nspden =       2   nspinor =       1
    nsppol =       2      nsym =      24    n1xccc =    2501    ntypat =       3
    occopt =       3   xclevel =       1
-    mband =         100        mffmem =           1         mkmem =           1
       mpw =       22496          nfft =      373248          nkpt =           1
================================================================================
P This job should need less than                     244.203 Mbytes of memory.
  Rough estimation (10% accuracy) of disk space for files :
_ WF disk file :     68.654 Mbytes ; DEN or POT disk file :      5.697 Mbytes.
================================================================================

 Biggest array : f_fftgr(disk), with     91.1270 MBytes.
 memana : allocated an array of     91.127 Mbytes, for testing purposes.
 memana: allocated     244.203Mbytes, for testing purposes. 
 The job will continue.

 DATASET   14 : space group P-4 3 m (#215); Bravais cP (primitive cubic)

 getdim_nloc : deduce lmnmax  =  18, lnmax  =   6,
                      lmnmaxso=  18, lnmaxso=   6.
memory: analysis of memory needs
================================================================================
 Values of the parameters that define the memory need for DATASET 14.
     intxc =       0    ionmov =       0      iscf =       7    lmnmax =       6
     lnmax =       6     mgfft =      75  mpssoang =       3    mqgrid =    3637
     natom =      21  nloc_mem =       1    nspden =       2   nspinor =       1
    nsppol =       2      nsym =      24    n1xccc =    2501    ntypat =       3
    occopt =       3   xclevel =       1
-    mband =         100        mffmem =           1         mkmem =           1
       mpw =       25064          nfft =      421875          nkpt =           1
================================================================================
P This job should need less than                     273.996 Mbytes of memory.
  Rough estimation (10% accuracy) of disk space for files :
_ WF disk file :     76.491 Mbytes ; DEN or POT disk file :      6.439 Mbytes.
================================================================================

 Biggest array : f_fftgr(disk), with    102.9988 MBytes.
 memana : allocated an array of    102.999 Mbytes, for testing purposes.
 memana: allocated     273.996Mbytes, for testing purposes. 
 The job will continue.

 DATASET   15 : space group P-4 3 m (#215); Bravais cP (primitive cubic)

 getdim_nloc : deduce lmnmax  =  18, lnmax  =   6,
                      lmnmaxso=  18, lnmaxso=   6.
memory: analysis of memory needs
================================================================================
 Values of the parameters that define the memory need for DATASET 15.
     intxc =       0    ionmov =       0      iscf =       7    lmnmax =       6
     lnmax =       6     mgfft =      80  mpssoang =       3    mqgrid =    3760
     natom =      21  nloc_mem =       1    nspden =       2   nspinor =       1
    nsppol =       2      nsym =      24    n1xccc =    2501    ntypat =       3
    occopt =       3   xclevel =       1
-    mband =         100        mffmem =           1         mkmem =           1
       mpw =       27832          nfft =      512000          nkpt =           1
================================================================================
P This job should need less than                     322.955 Mbytes of memory.
  Rough estimation (10% accuracy) of disk space for files :
_ WF disk file :     84.939 Mbytes ; DEN or POT disk file :      7.815 Mbytes.
================================================================================

 Biggest array : f_fftgr(disk), with    125.0020 MBytes.
 memana : allocated an array of    125.002 Mbytes, for testing purposes.
 memana: allocated     322.955Mbytes, for testing purposes. 
 The job will continue.

--- !COMMENT
src_file: m_outvars.F90
src_line: 212
message: |
    output of OUT.nc has been disabled. Too many datasets
...

--------------------------------------------------------------------------------
------------- Echo of variables that govern the present computation ------------
--------------------------------------------------------------------------------
-
- outvars: echo of selected default values                                      
-   iomode0 =  0 , fftalg0 =312 , wfoptalg0 =  0
-
- outvars: echo of global parameters not present in the input file              
-  max_nthreads =    8
-
 -outvars: echo values of preprocessed input variables --------

--- !COMMENT
src_file: m_outvars.F90
src_line: 212
message: |
    output of OUT.nc has been disabled. Too many datasets
...

            acell      1.5000000000E+01  1.5000000000E+01  1.5000000000E+01 Bohr
              amu      1.00794000E+00  1.59994000E+01  2.80855000E+01
           charge      1.00000000E+00
           diemac      1.20000000E+01
             ecut1     3.00000000E+00 Hartree
             ecut2     5.00000000E+00 Hartree
             ecut3     7.00000000E+00 Hartree
             ecut4     9.00000000E+00 Hartree
             ecut5     1.10000000E+01 Hartree
             ecut6     1.30000000E+01 Hartree
             ecut7     1.50000000E+01 Hartree
             ecut8     1.70000000E+01 Hartree
             ecut9     1.90000000E+01 Hartree
             ecut10    2.10000000E+01 Hartree
             ecut11    2.30000000E+01 Hartree
             ecut12    2.50000000E+01 Hartree
             ecut13    2.70000000E+01 Hartree
             ecut14    2.90000000E+01 Hartree
             ecut15    3.10000000E+01 Hartree
-          fftalg         312
           istwfk        1
              ixc       -1012
           jdtset        1    2    3    4    5    6    7    8    9   10
                        11   12   13   14   15
              kpt      5.00000000E-01  5.00000000E-01  5.00000000E-01
         kptrlatt        1    0    0      0    1    0      0    0    1
          kptrlen      1.50000000E+01
P           mkmem           1
            natom          21
            nband         100
           ndtset          15
            ngfft1         24      24      24
            ngfft2         32      32      32
            ngfft3         36      36      36
            ngfft4         45      45      45
            ngfft5         48      48      48
            ngfft6         50      50      50
            ngfft7         54      54      54
            ngfft8         60      60      60
            ngfft9         60      60      60
            ngfft10        64      64      64
            ngfft11        72      72      72
            ngfft12        72      72      72
            ngfft13        72      72      72
            ngfft14        75      75      75
            ngfft15        80      80      80
             nkpt           1
           nspden           2
           nsppol           2
            nstep         100
             nsym          24
           ntypat           3
              occ      1.000000  1.000000  1.000000  1.000000  1.000000  1.000000
                       1.000000  1.000000  1.000000  1.000000  1.000000  1.000000
                       1.000000  1.000000  1.000000  1.000000  1.000000  1.000000
                       1.000000  1.000000  1.000000  1.000000  1.000000  1.000000
                       1.000000  1.000000  1.000000  1.000000  0.000000  0.000000
                       0.000000  0.000000  0.000000  0.000000  0.000000  0.000000
                       0.000000  0.000000  0.000000  0.000000  0.000000  0.000000
                       0.000000  0.000000  0.000000  0.000000  0.000000  0.000000
                       0.000000  0.000000  0.000000  0.000000  0.000000  0.000000
                       0.000000  0.000000  0.000000  0.000000  0.000000  0.000000
                       0.000000  0.000000  0.000000  0.000000  0.000000  0.000000
                       0.000000  0.000000  0.000000  0.000000  0.000000  0.000000
                       0.000000  0.000000  0.000000  0.000000  0.000000  0.000000
                       0.000000  0.000000  0.000000  0.000000  0.000000  0.000000
                       0.000000  0.000000  0.000000  0.000000  0.000000  0.000000
                       0.000000  0.000000  0.000000  0.000000  0.000000  0.000000
                       0.000000  0.000000  0.000000  0.000000
                       1.000000  1.000000  1.000000  1.000000  1.000000  1.000000
                       1.000000  1.000000  1.000000  1.000000  1.000000  1.000000
                       1.000000  1.000000  1.000000  1.000000  1.000000  1.000000
                       1.000000  1.000000  1.000000  1.000000  1.000000  1.000000
                       1.000000  1.000000  1.000000  0.000000  0.000000  0.000000
                       0.000000  0.000000  0.000000  0.000000  0.000000  0.000000
                       0.000000  0.000000  0.000000  0.000000  0.000000  0.000000
                       0.000000  0.000000  0.000000  0.000000  0.000000  0.000000
                       0.000000  0.000000  0.000000  0.000000  0.000000  0.000000
                       0.000000  0.000000  0.000000  0.000000  0.000000  0.000000
                       0.000000  0.000000  0.000000  0.000000  0.000000  0.000000
                       0.000000  0.000000  0.000000  0.000000  0.000000  0.000000
                       0.000000  0.000000  0.000000  0.000000  0.000000  0.000000
                       0.000000  0.000000  0.000000  0.000000  0.000000  0.000000
                       0.000000  0.000000  0.000000  0.000000  0.000000  0.000000
                       0.000000  0.000000  0.000000  0.000000  0.000000  0.000000
                       0.000000  0.000000  0.000000  0.000000
           occopt           3
        optforces           1
           shiftk      5.00000000E-01  5.00000000E-01  5.00000000E-01
          spgroup         215
           spinat      0.0000000000E+00  0.0000000000E+00  1.0000000000E-01
                       0.0000000000E+00  0.0000000000E+00  1.0000000000E-01
                       0.0000000000E+00  0.0000000000E+00  1.0000000000E-01
                       0.0000000000E+00  0.0000000000E+00  1.0000000000E-01
                       0.0000000000E+00  0.0000000000E+00  1.0000000000E-01
                       0.0000000000E+00  0.0000000000E+00  1.0000000000E-01
                       0.0000000000E+00  0.0000000000E+00  1.0000000000E-01
                       0.0000000000E+00  0.0000000000E+00  1.0000000000E-01
                       0.0000000000E+00  0.0000000000E+00  1.0000000000E-01
                       0.0000000000E+00  0.0000000000E+00  1.0000000000E-01
                       0.0000000000E+00  0.0000000000E+00  1.0000000000E-01
                       0.0000000000E+00  0.0000000000E+00  1.0000000000E-01
                       0.0000000000E+00  0.0000000000E+00  1.0000000000E-01
                       0.0000000000E+00  0.0000000000E+00  1.0000000000E-01
                       0.0000000000E+00  0.0000000000E+00  1.0000000000E-01
                       0.0000000000E+00  0.0000000000E+00  1.0000000000E-01
                       0.0000000000E+00  0.0000000000E+00  1.0000000000E-01
                       0.0000000000E+00  0.0000000000E+00  1.0000000000E-01
                       0.0000000000E+00  0.0000000000E+00  1.0000000000E-01
                       0.0000000000E+00  0.0000000000E+00  1.0000000000E-01
                       0.0000000000E+00  0.0000000000E+00  1.0000000000E-01
           symrel      1  0  0   0  1  0   0  0  1      -1  0  0   0  1  0   0  0 -1
                      -1  0  0   0 -1  0   0  0  1       1  0  0   0 -1  0   0  0 -1
                       0  1  0   1  0  0   0  0  1       0 -1  0   1  0  0   0  0 -1
                       0 -1  0  -1  0  0   0  0  1       0  1  0  -1  0  0   0  0 -1
                       0  0  1   1  0  0   0  1  0       0  0 -1   1  0  0   0 -1  0
                       0  0 -1  -1  0  0   0  1  0       0  0  1  -1  0  0   0 -1  0
                       1  0  0   0  0  1   0  1  0      -1  0  0   0  0  1   0 -1  0
                      -1  0  0   0  0 -1   0  1  0       1  0  0   0  0 -1   0 -1  0
                       0  1  0   0  0  1   1  0  0       0 -1  0   0  0  1  -1  0  0
                       0 -1  0   0  0 -1   1  0  0       0  1  0   0  0 -1  -1  0  0
                       0  0  1   0  1  0   1  0  0       0  0 -1   0  1  0  -1  0  0
                       0  0 -1   0 -1  0   1  0  0       0  0  1   0 -1  0  -1  0  0
           tolrff      2.00000000E-02
           tsmear      1.00000000E-05 Hartree
            typat      3  3  3  3  3  2  2  2  2  1  1  1  1  1  1  1  1  1  1  1
                       1
           xangst      0.0000000000E+00  0.0000000000E+00  0.0000000000E+00
                       1.8804372284E+00 -1.8804372284E+00 -1.8804372284E+00
                      -1.8804372284E+00  1.8804372284E+00 -1.8804372284E+00
                      -1.8804372284E+00 -1.8804372284E+00  1.8804372284E+00
                       1.8804372284E+00  1.8804372284E+00  1.8804372284E+00
                       9.2904949682E-01 -9.2904949682E-01 -9.2904949682E-01
                      -9.2904949682E-01  9.2904949682E-01 -9.2904949682E-01
                      -9.2904949682E-01 -9.2904949682E-01  9.2904949682E-01
                       9.2904949682E-01  9.2904949682E-01  9.2904949682E-01
                       1.5645349042E+00 -1.5645349042E+00 -3.3105335111E+00
                       1.5645349042E+00 -3.3105335111E+00 -1.5645349042E+00
                       3.3105335111E+00 -1.5645349042E+00 -1.5645349042E+00
                      -1.5645349042E+00  1.5645349042E+00 -3.3105335111E+00
                      -1.5645349042E+00  3.3105335111E+00 -1.5645349042E+00
                      -3.3105335111E+00  1.5645349042E+00 -1.5645349042E+00
                      -1.5645349042E+00 -1.5645349042E+00  3.3105335111E+00
                      -1.5645349042E+00 -3.3105335111E+00  1.5645349042E+00
                      -3.3105335111E+00 -1.5645349042E+00  1.5645349042E+00
                       3.3105335111E+00  1.5645349042E+00  1.5645349042E+00
                       1.5645349042E+00  3.3105335111E+00  1.5645349042E+00
                       1.5645349042E+00  1.5645349042E+00  3.3105335111E+00
            xcart      0.0000000000E+00  0.0000000000E+00  0.0000000000E+00
                       3.5535113717E+00 -3.5535113717E+00 -3.5535113717E+00
                      -3.5535113717E+00  3.5535113717E+00 -3.5535113717E+00
                      -3.5535113717E+00 -3.5535113717E+00  3.5535113717E+00
                       3.5535113717E+00  3.5535113717E+00  3.5535113717E+00
                       1.7556491129E+00 -1.7556491129E+00 -1.7556491129E+00
                      -1.7556491129E+00  1.7556491129E+00 -1.7556491129E+00
                      -1.7556491129E+00 -1.7556491129E+00  1.7556491129E+00
                       1.7556491129E+00  1.7556491129E+00  1.7556491129E+00
                       2.9565424942E+00 -2.9565424942E+00 -6.2560016897E+00
                       2.9565424942E+00 -6.2560016897E+00 -2.9565424942E+00
                       6.2560016897E+00 -2.9565424942E+00 -2.9565424942E+00
                      -2.9565424942E+00  2.9565424942E+00 -6.2560016897E+00
                      -2.9565424942E+00  6.2560016897E+00 -2.9565424942E+00
                      -6.2560016897E+00  2.9565424942E+00 -2.9565424942E+00
                      -2.9565424942E+00 -2.9565424942E+00  6.2560016897E+00
                      -2.9565424942E+00 -6.2560016897E+00  2.9565424942E+00
                      -6.2560016897E+00 -2.9565424942E+00  2.9565424942E+00
                       6.2560016897E+00  2.9565424942E+00  2.9565424942E+00
                       2.9565424942E+00  6.2560016897E+00  2.9565424942E+00
                       2.9565424942E+00  2.9565424942E+00  6.2560016897E+00
             xred      0.0000000000E+00  0.0000000000E+00  0.0000000000E+00
                       2.3690075811E-01 -2.3690075811E-01 -2.3690075811E-01
                      -2.3690075811E-01  2.3690075811E-01 -2.3690075811E-01
                      -2.3690075811E-01 -2.3690075811E-01  2.3690075811E-01
                       2.3690075811E-01  2.3690075811E-01  2.3690075811E-01
                       1.1704327419E-01 -1.1704327419E-01 -1.1704327419E-01
                      -1.1704327419E-01  1.1704327419E-01 -1.1704327419E-01
                      -1.1704327419E-01 -1.1704327419E-01  1.1704327419E-01
                       1.1704327419E-01  1.1704327419E-01  1.1704327419E-01
                       1.9710283295E-01 -1.9710283295E-01 -4.1706677931E-01
                       1.9710283295E-01 -4.1706677931E-01 -1.9710283295E-01
                       4.1706677931E-01 -1.9710283295E-01 -1.9710283295E-01
                      -1.9710283295E-01  1.9710283295E-01 -4.1706677931E-01
                      -1.9710283295E-01  4.1706677931E-01 -1.9710283295E-01
                      -4.1706677931E-01  1.9710283295E-01 -1.9710283295E-01
                      -1.9710283295E-01 -1.9710283295E-01  4.1706677931E-01
                      -1.9710283295E-01 -4.1706677931E-01  1.9710283295E-01
                      -4.1706677931E-01 -1.9710283295E-01  1.9710283295E-01
                       4.1706677931E-01  1.9710283295E-01  1.9710283295E-01
                       1.9710283295E-01  4.1706677931E-01  1.9710283295E-01
                       1.9710283295E-01  1.9710283295E-01  4.1706677931E-01
            znucl        1.00000    8.00000   14.00000

================================================================================

 chkinp: Checking input parameters for consistency, jdtset=   1.

 chkinp: Checking input parameters for consistency, jdtset=   2.

 chkinp: Checking input parameters for consistency, jdtset=   3.

 chkinp: Checking input parameters for consistency, jdtset=   4.

 chkinp: Checking input parameters for consistency, jdtset=   5.

 chkinp: Checking input parameters for consistency, jdtset=   6.

 chkinp: Checking input parameters for consistency, jdtset=   7.

 chkinp: Checking input parameters for consistency, jdtset=   8.

 chkinp: Checking input parameters for consistency, jdtset=   9.

 chkinp: Checking input parameters for consistency, jdtset=  10.

 chkinp: Checking input parameters for consistency, jdtset=  11.

 chkinp: Checking input parameters for consistency, jdtset=  12.

 chkinp: Checking input parameters for consistency, jdtset=  13.

 chkinp: Checking input parameters for consistency, jdtset=  14.

 chkinp: Checking input parameters for consistency, jdtset=  15.

--- !COMMENT
src_file: m_chkinp.F90
src_line: 3919
message: |
    dipdip can be set to 0 in case of metals whereas dipdip 1 should be used in polar materials.
...

 DATA TYPE INFORMATION: 
 REAL:      Data type name: REAL(DP) 
            Kind value:      8
            Precision:      15
            Smallest nonnegligible quantity relative to 1: 0.22204460E-015
            Smallest positive number:                      0.22250739E-307
            Largest representable number:                  0.17976931E+309
 INTEGER:   Data type name: INTEGER(default) 
            Kind value: 4
            Bit size:   32
            Largest representable number: 2147483647
 LOGICAL:   Data type name: LOGICAL 
            Kind value: 4
 CHARACTER: Data type name: CHARACTER             Kind value: 1

  ==== OpenMP parallelism is ON ====
- Max_threads:       8
- Num_threads:       8
- Num_procs:         8
- Dynamic:           F
- Nested:            F
 
  ==== Using MPI-2 specifications ==== 
  MPI-IO support is ON
  xmpi_tag_ub ................   2147483647
  xmpi_bsize_ch ..............            1
  xmpi_bsize_int .............            4
  xmpi_bsize_sp ..............            4
  xmpi_bsize_dp ..............            8
  xmpi_bsize_spc .............            8
  xmpi_bsize_dpc .............           16
  xmpio_bsize_frm ............            4
  xmpi_address_kind ..........            8
  xmpi_offset_kind ...........            8
  MPI_WTICK ..................    9.9999999999999995E-007

================================================================================
== DATASET  1 ==================================================================
-   mpi_nproc: 4, omp_nthreads: 8 (-1 if OMP is not activated)
-    --> not optimal distribution: autoparal keyword recommended in input file <--


--- !COMMENT
src_file: m_xgScalapack.F90
src_line: 236
message: |
    xgScalapack in auto mode
...


 getdim_nloc : deduce lmnmax  =  18, lnmax  =   6,
                      lmnmaxso=  18, lnmaxso=   6.
 Slater exchange
 P. A. M. Dirac, Math. Proc. Cambridge Philos. Soc. 26, 376 (1930)
 F. Bloch, Z. Phys. 57, 545 (1929)
 Perdew & Wang
 J. P. Perdew and Y. Wang, Phys. Rev. B 45, 13244 (1992)

 Unit cell volume ucvol=  3.3750000E+03 bohr^3
 Angles (23,13,12)=  9.00000000E+01  9.00000000E+01  9.00000000E+01 degrees

 getcut: wavevector=  0.0000  0.0000  0.0000  ngfft=  24  24  24
         ecut(hartree)=      3.000   => boxcut(ratio)=   2.05208
- pspini: atom type   1  psp file is /Users/ali/Desktop/JDFTX/build-withlibxc/pseudopotentials/H.psp8
- pspatm: opening atomic psp file    /Users/ali/Desktop/JDFTX/build-withlibxc/pseudopotentials/H.psp8
- H     ONCVPSP-3.3.0  r_core=   1.00957   0.90680
-  1.00000   1.00000    171101                znucl, zion, pspdat
    8   -1012    1    4       300   0.00000   pspcod,pspxc,lmax,lloc,mmax,r2well
    2.99000000000000    0.00000000000000    0.00000000000000   rchrg,fchrg,qchrg
     nproj     2     1
     extension_switch     1
  valence charge integrates to:   0.89642925612054136     
  pspatm : epsatm=    0.35491505
         --- l  ekb(1:nproj) -->
             0   -1.665338   -0.519510
             1   -0.275071
 pspatm: atomic psp has been read  and splines computed

- pspini: atom type   2  psp file is /Users/ali/Desktop/JDFTX/build-withlibxc/pseudopotentials/O.psp8
- pspatm: opening atomic psp file    /Users/ali/Desktop/JDFTX/build-withlibxc/pseudopotentials/O.psp8
- O     ONCVPSP-3.3.0  r_core=   1.35509   1.45563   1.35509
-  8.00000   6.00000    171101                znucl, zion, pspdat
    8   -1012    2    4       600   0.00000   pspcod,pspxc,lmax,lloc,mmax,r2well
    5.99000000000000    4.00000000000000    0.00000000000000   rchrg,fchrg,qchrg
     nproj     2     2     1
     extension_switch     1
  valence charge integrates to:    5.9991245059025342     
  pspatm : epsatm=    6.27558977
         --- l  ekb(1:nproj) -->
             0    6.026028    0.816167
             1   -4.798959   -1.172522
             2   -1.033686
 pspatm: atomic psp has been read  and splines computed

- pspini: atom type   3  psp file is /Users/ali/Desktop/JDFTX/build-withlibxc/pseudopotentials/Si.psp8
- pspatm: opening atomic psp file    /Users/ali/Desktop/JDFTX/build-withlibxc/pseudopotentials/Si.psp8
- Si    ONCVPSP-3.3.0  r_core=   1.60303   1.72197   1.91712
- 14.00000   4.00000    171102                znucl, zion, pspdat
    8   -1012    2    4       600   0.00000   pspcod,pspxc,lmax,lloc,mmax,r2well
    5.99000000000000    4.00000000000000    0.00000000000000   rchrg,fchrg,qchrg
     nproj     2     2     2
     extension_switch     1
  valence charge integrates to:    3.9545012856495880     
  pspatm : epsatm=    6.67004110
         --- l  ekb(1:nproj) -->
             0    5.565958    0.856966
             1    2.726111    0.629828
             2   -2.124804   -0.444604
 pspatm: atomic psp has been read  and splines computed

   3.51184653E+03                                ecore*ucvol(ha*bohr**3)
 ==== Info on pseudopotentials ====
  Norm-conserving pseudopotentials
  Number of pseudopotentials ..    3
  Number of types of atoms   ..    3
  Scalar calculation (no spin-orbit term)
  Nonlocal part applied using Legendre polynomials
  Max number of non-local projectors over l and type   2
  Highest angular momentum +1 .......   3
  Max number of (l,n)   components ..   6
  Max number of (l,m,n) components ..   6

 Pseudo-Core Charge Info: 
   Number of radial points for pseudo-core charge .. 2501
   XC core-correction treatment (optnlxccc) ........    1
   Radius for pseudo-core charge for each type ..... 

  - Atom type    1 has pseudo-core radius ..  0.0000
  - Atom type    2 has pseudo-core radius ..  5.9900
  - Atom type    3 has pseudo-core radius ..  5.9900

 Info on the Q-grid used for form factors in spline form: 
   Number of q-points for radial functions ffspl ..   3001
   Number of q-points for vlspl ...................   3001
   vloc is computed in Reciprocal Space
   model core charge treated in real-space

  XC functional for type 1 is -1012
  Pseudo valence available: yes
  XC functional for type 2 is -1012
  Pseudo valence available: yes
  XC functional for type 3 is -1012
  Pseudo valence available: yes

[...]
                       0.000000  0.000000  0.000000  0.000000  0.000000  0.000000
                       0.000000  0.000000  0.000000  0.000000  0.000000  0.000000
                       0.000000  0.000000  0.000000  0.000000
                       1.000000  1.000000  1.000000  1.000000  1.000000  1.000000
                       1.000000  1.000000  1.000000  1.000000  1.000000  1.000000
                       1.000000  1.000000  1.000000  1.000000  1.000000  1.000000
                       1.000000  1.000000  1.000000  1.000000  1.000000  1.000000
                       1.000000  0.666667  0.666667  0.666667  0.000000  0.000000
                       0.000000  0.000000  0.000000  0.000000  0.000000  0.000000
                       0.000000  0.000000  0.000000  0.000000  0.000000  0.000000
                       0.000000  0.000000  0.000000  0.000000  0.000000  0.000000
                       0.000000  0.000000  0.000000  0.000000  0.000000  0.000000
                       0.000000  0.000000  0.000000  0.000000  0.000000  0.000000
                       0.000000  0.000000  0.000000  0.000000  0.000000  0.000000
                       0.000000  0.000000  0.000000  0.000000  0.000000  0.000000
                       0.000000  0.000000  0.000000  0.000000  0.000000  0.000000
                       0.000000  0.000000  0.000000  0.000000  0.000000  0.000000
                       0.000000  0.000000  0.000000  0.000000  0.000000  0.000000
                       0.000000  0.000000  0.000000  0.000000  0.000000  0.000000
                       0.000000  0.000000  0.000000  0.000000
              occ15    1.000000  1.000000  1.000000  1.000000  1.000000  1.000000
                       1.000000  1.000000  1.000000  1.000000  1.000000  1.000000
                       1.000000  1.000000  1.000000  1.000000  1.000000  1.000000
                       1.000000  1.000000  1.000000  1.000000  1.000000  1.000000
                       1.000000  1.000000  1.000000  1.000000  0.000000  0.000000
                       0.000000  0.000000  0.000000  0.000000  0.000000  0.000000
                       0.000000  0.000000  0.000000  0.000000  0.000000  0.000000
                       0.000000  0.000000  0.000000  0.000000  0.000000  0.000000
                       0.000000  0.000000  0.000000  0.000000  0.000000  0.000000
                       0.000000  0.000000  0.000000  0.000000  0.000000  0.000000
                       0.000000  0.000000  0.000000  0.000000  0.000000  0.000000
                       0.000000  0.000000  0.000000  0.000000  0.000000  0.000000
                       0.000000  0.000000  0.000000  0.000000  0.000000  0.000000
                       0.000000  0.000000  0.000000  0.000000  0.000000  0.000000
                       0.000000  0.000000  0.000000  0.000000  0.000000  0.000000
                       0.000000  0.000000  0.000000  0.000000  0.000000  0.000000
                       0.000000  0.000000  0.000000  0.000000
                       1.000000  1.000000  1.000000  1.000000  1.000000  1.000000
                       1.000000  1.000000  1.000000  1.000000  1.000000  1.000000
                       1.000000  1.000000  1.000000  1.000000  1.000000  1.000000
                       1.000000  1.000000  1.000000  1.000000  1.000000  1.000000
                       1.000000  0.666667  0.666667  0.666667  0.000000  0.000000
                       0.000000  0.000000  0.000000  0.000000  0.000000  0.000000
                       0.000000  0.000000  0.000000  0.000000  0.000000  0.000000
                       0.000000  0.000000  0.000000  0.000000  0.000000  0.000000
                       0.000000  0.000000  0.000000  0.000000  0.000000  0.000000
                       0.000000  0.000000  0.000000  0.000000  0.000000  0.000000
                       0.000000  0.000000  0.000000  0.000000  0.000000  0.000000
                       0.000000  0.000000  0.000000  0.000000  0.000000  0.000000
                       0.000000  0.000000  0.000000  0.000000  0.000000  0.000000
                       0.000000  0.000000  0.000000  0.000000  0.000000  0.000000
                       0.000000  0.000000  0.000000  0.000000  0.000000  0.000000
                       0.000000  0.000000  0.000000  0.000000  0.000000  0.000000
                       0.000000  0.000000  0.000000  0.000000
           occopt           3
        optforces           1
           shiftk      5.00000000E-01  5.00000000E-01  5.00000000E-01
          spgroup         215
           spinat      0.0000000000E+00  0.0000000000E+00  1.0000000000E-01
                       0.0000000000E+00  0.0000000000E+00  1.0000000000E-01
                       0.0000000000E+00  0.0000000000E+00  1.0000000000E-01
                       0.0000000000E+00  0.0000000000E+00  1.0000000000E-01
                       0.0000000000E+00  0.0000000000E+00  1.0000000000E-01
                       0.0000000000E+00  0.0000000000E+00  1.0000000000E-01
                       0.0000000000E+00  0.0000000000E+00  1.0000000000E-01
                       0.0000000000E+00  0.0000000000E+00  1.0000000000E-01
                       0.0000000000E+00  0.0000000000E+00  1.0000000000E-01
                       0.0000000000E+00  0.0000000000E+00  1.0000000000E-01
                       0.0000000000E+00  0.0000000000E+00  1.0000000000E-01
                       0.0000000000E+00  0.0000000000E+00  1.0000000000E-01
                       0.0000000000E+00  0.0000000000E+00  1.0000000000E-01
                       0.0000000000E+00  0.0000000000E+00  1.0000000000E-01
                       0.0000000000E+00  0.0000000000E+00  1.0000000000E-01
                       0.0000000000E+00  0.0000000000E+00  1.0000000000E-01
                       0.0000000000E+00  0.0000000000E+00  1.0000000000E-01
                       0.0000000000E+00  0.0000000000E+00  1.0000000000E-01
                       0.0000000000E+00  0.0000000000E+00  1.0000000000E-01
                       0.0000000000E+00  0.0000000000E+00  1.0000000000E-01
                       0.0000000000E+00  0.0000000000E+00  1.0000000000E-01
           strten1     1.2327794340E-03  1.2327794340E-03  1.2327794340E-03
                       0.0000000000E+00  0.0000000000E+00  0.0000000000E+00
           strten2     1.1774409329E-03  1.1774409329E-03  1.1774409329E-03
                       0.0000000000E+00  0.0000000000E+00  0.0000000000E+00
           strten3     1.0909783944E-03  1.0909783944E-03  1.0909783944E-03
                       0.0000000000E+00  0.0000000000E+00  0.0000000000E+00
           strten4     1.1097240374E-03  1.1097240374E-03  1.1097240374E-03
                       0.0000000000E+00  0.0000000000E+00  0.0000000000E+00
           strten5     1.0583786601E-03  1.0583786601E-03  1.0583786601E-03
                       0.0000000000E+00  0.0000000000E+00  0.0000000000E+00
           strten6     9.4906068691E-04  9.4906068691E-04  9.4906068691E-04
                       0.0000000000E+00  0.0000000000E+00  0.0000000000E+00
           strten7     8.0785507061E-04  8.0785507061E-04  8.0785507061E-04
                       0.0000000000E+00  0.0000000000E+00  0.0000000000E+00
           strten8     6.6639646628E-04  6.6639646628E-04  6.6639646628E-04
                       0.0000000000E+00  0.0000000000E+00  0.0000000000E+00
           strten9     5.3142069935E-04  5.3142069935E-04  5.3142069935E-04
                       0.0000000000E+00  0.0000000000E+00  0.0000000000E+00
           strten10    4.0675913849E-04  4.0675913849E-04  4.0675913849E-04
                       0.0000000000E+00  0.0000000000E+00  0.0000000000E+00
           strten11    2.9977471696E-04  2.9977471696E-04  2.9977471696E-04
                       0.0000000000E+00  0.0000000000E+00  0.0000000000E+00
           strten12    2.1710240523E-04  2.1710240523E-04  2.1710240523E-04
                       0.0000000000E+00  0.0000000000E+00  0.0000000000E+00
           strten13    1.6838775877E-04  1.6838775877E-04  1.6838775877E-04
                       0.0000000000E+00  0.0000000000E+00  0.0000000000E+00
           strten14    1.2907974275E-04  1.2907974275E-04  1.2907974275E-04
                       0.0000000000E+00  0.0000000000E+00  0.0000000000E+00
           strten15    1.0290073890E-04  1.0290073890E-04  1.0290073890E-04
                       0.0000000000E+00  0.0000000000E+00  0.0000000000E+00
           symrel      1  0  0   0  1  0   0  0  1      -1  0  0   0  1  0   0  0 -1
                      -1  0  0   0 -1  0   0  0  1       1  0  0   0 -1  0   0  0 -1
                       0  1  0   1  0  0   0  0  1       0 -1  0   1  0  0   0  0 -1
                       0 -1  0  -1  0  0   0  0  1       0  1  0  -1  0  0   0  0 -1
                       0  0  1   1  0  0   0  1  0       0  0 -1   1  0  0   0 -1  0
                       0  0 -1  -1  0  0   0  1  0       0  0  1  -1  0  0   0 -1  0
                       1  0  0   0  0  1   0  1  0      -1  0  0   0  0  1   0 -1  0
                      -1  0  0   0  0 -1   0  1  0       1  0  0   0  0 -1   0 -1  0
                       0  1  0   0  0  1   1  0  0       0 -1  0   0  0  1  -1  0  0
                       0 -1  0   0  0 -1   1  0  0       0  1  0   0  0 -1  -1  0  0
                       0  0  1   0  1  0   1  0  0       0  0 -1   0  1  0  -1  0  0
                       0  0 -1   0 -1  0   1  0  0       0  0  1   0 -1  0  -1  0  0
           tolrff      2.00000000E-02
           tsmear      1.00000000E-05 Hartree
            typat      3  3  3  3  3  2  2  2  2  1  1  1  1  1  1  1  1  1  1  1
                       1
           xangst      0.0000000000E+00  0.0000000000E+00  0.0000000000E+00
                       1.8804372284E+00 -1.8804372284E+00 -1.8804372284E+00
                      -1.8804372284E+00  1.8804372284E+00 -1.8804372284E+00
                      -1.8804372284E+00 -1.8804372284E+00  1.8804372284E+00
                       1.8804372284E+00  1.8804372284E+00  1.8804372284E+00
                       9.2904949682E-01 -9.2904949682E-01 -9.2904949682E-01
                      -9.2904949682E-01  9.2904949682E-01 -9.2904949682E-01
                      -9.2904949682E-01 -9.2904949682E-01  9.2904949682E-01
                       9.2904949682E-01  9.2904949682E-01  9.2904949682E-01
                       1.5645349042E+00 -1.5645349042E+00 -3.3105335111E+00
                       1.5645349042E+00 -3.3105335111E+00 -1.5645349042E+00
                       3.3105335111E+00 -1.5645349042E+00 -1.5645349042E+00
                      -1.5645349042E+00  1.5645349042E+00 -3.3105335111E+00
                      -1.5645349042E+00  3.3105335111E+00 -1.5645349042E+00
                      -3.3105335111E+00  1.5645349042E+00 -1.5645349042E+00
                      -1.5645349042E+00 -1.5645349042E+00  3.3105335111E+00
                      -1.5645349042E+00 -3.3105335111E+00  1.5645349042E+00
                      -3.3105335111E+00 -1.5645349042E+00  1.5645349042E+00
                       3.3105335111E+00  1.5645349042E+00  1.5645349042E+00
                       1.5645349042E+00  3.3105335111E+00  1.5645349042E+00
                       1.5645349042E+00  1.5645349042E+00  3.3105335111E+00
            xcart      0.0000000000E+00  0.0000000000E+00  0.0000000000E+00
                       3.5535113717E+00 -3.5535113717E+00 -3.5535113717E+00
                      -3.5535113717E+00  3.5535113717E+00 -3.5535113717E+00
                      -3.5535113717E+00 -3.5535113717E+00  3.5535113717E+00
                       3.5535113717E+00  3.5535113717E+00  3.5535113717E+00
                       1.7556491129E+00 -1.7556491129E+00 -1.7556491129E+00
                      -1.7556491129E+00  1.7556491129E+00 -1.7556491129E+00
                      -1.7556491129E+00 -1.7556491129E+00  1.7556491129E+00
                       1.7556491129E+00  1.7556491129E+00  1.7556491129E+00
                       2.9565424942E+00 -2.9565424942E+00 -6.2560016897E+00
                       2.9565424942E+00 -6.2560016897E+00 -2.9565424942E+00
                       6.2560016897E+00 -2.9565424942E+00 -2.9565424942E+00
                      -2.9565424942E+00  2.9565424942E+00 -6.2560016897E+00
                      -2.9565424942E+00  6.2560016897E+00 -2.9565424942E+00
                      -6.2560016897E+00  2.9565424942E+00 -2.9565424942E+00
                      -2.9565424942E+00 -2.9565424942E+00  6.2560016897E+00
                      -2.9565424942E+00 -6.2560016897E+00  2.9565424942E+00
                      -6.2560016897E+00 -2.9565424942E+00  2.9565424942E+00
                       6.2560016897E+00  2.9565424942E+00  2.9565424942E+00
                       2.9565424942E+00  6.2560016897E+00  2.9565424942E+00
                       2.9565424942E+00  2.9565424942E+00  6.2560016897E+00
             xred      0.0000000000E+00  0.0000000000E+00  0.0000000000E+00
                       2.3690075811E-01 -2.3690075811E-01 -2.3690075811E-01
                      -2.3690075811E-01  2.3690075811E-01 -2.3690075811E-01
                      -2.3690075811E-01 -2.3690075811E-01  2.3690075811E-01
                       2.3690075811E-01  2.3690075811E-01  2.3690075811E-01
                       1.1704327419E-01 -1.1704327419E-01 -1.1704327419E-01
                      -1.1704327419E-01  1.1704327419E-01 -1.1704327419E-01
                      -1.1704327419E-01 -1.1704327419E-01  1.1704327419E-01
                       1.1704327419E-01  1.1704327419E-01  1.1704327419E-01
                       1.9710283295E-01 -1.9710283295E-01 -4.1706677931E-01
                       1.9710283295E-01 -4.1706677931E-01 -1.9710283295E-01
                       4.1706677931E-01 -1.9710283295E-01 -1.9710283295E-01
                      -1.9710283295E-01  1.9710283295E-01 -4.1706677931E-01
                      -1.9710283295E-01  4.1706677931E-01 -1.9710283295E-01
                      -4.1706677931E-01  1.9710283295E-01 -1.9710283295E-01
                      -1.9710283295E-01 -1.9710283295E-01  4.1706677931E-01
                      -1.9710283295E-01 -4.1706677931E-01  1.9710283295E-01
                      -4.1706677931E-01 -1.9710283295E-01  1.9710283295E-01
                       4.1706677931E-01  1.9710283295E-01  1.9710283295E-01
                       1.9710283295E-01  4.1706677931E-01  1.9710283295E-01
                       1.9710283295E-01  1.9710283295E-01  4.1706677931E-01
            znucl        1.00000    8.00000   14.00000

================================================================================
  

================================================================================

 Suggested references for the acknowledgment of ABINIT usage.

 The users of ABINIT have little formal obligations with respect to the ABINIT group
 (those specified in the GNU General Public License, http://www.gnu.org/copyleft/gpl.txt).
 However, it is common practice in the scientific literature,
 to acknowledge the efforts of people that have made the research possible.
 In this spirit, please find below suggested citations of work written by ABINIT developers,
 corresponding to implementations inside of ABINIT that you have used in the present run.
 Note also that it will be of great value to readers of publications presenting these results,
 to read papers enabling them to understand the theoretical formalism and details
 of the ABINIT implementation.
 For information on why they are suggested, see also https://docs.abinit.org/theory/acknowledgments.
-
- [1] Libxc: A library of exchange and correlation functionals for density functional theory.
- M.A.L. Marques, M.J.T. Oliveira, T. Burnus, Computer Physics Communications 183, 2227 (2012).
- Comment: to be cited when LibXC is used (negative value of ixc)
- Strong suggestion to cite this paper.
- DOI and bibtex: see https://docs.abinit.org/theory/bibliography/#marques2012
-
- [2] The Abinit project: Impact, environment and recent developments.
- Computer Phys. Comm. 248, 107042 (2020).
- X.Gonze, B. Amadon, G. Antonius, F.Arnardi, L.Baguet, J.-M.Beuken,
- J.Bieder, F.Bottin, J.Bouchet, E.Bousquet, N.Brouwer, F.Bruneval,
- G.Brunin, T.Cavignac, J.-B. Charraud, Wei Chen, M.Cote, S.Cottenier,
- J.Denier, G.Geneste, Ph.Ghosez, M.Giantomassi, Y.Gillet, O.Gingras,
- D.R.Hamann, G.Hautier, Xu He, N.Helbig, N.Holzwarth, Y.Jia, F.Jollet,
- W.Lafargue-Dit-Hauret, K.Lejaeghere, M.A.L.Marques, A.Martin, C.Martins,
- H.P.C. Miranda, F.Naccarato, K. Persson, G.Petretto, V.Planes, Y.Pouillon,
- S.Prokhorenko, F.Ricci, G.-M.Rignanese, A.H.Romero, M.M.Schmitt, M.Torrent,
- M.J.van Setten, B.Van Troeye, M.J.Verstraete, G.Zerah and J.W.Zwanzig
- Comment: the fifth generic paper describing the ABINIT project.
- Note that a version of this paper, that is not formatted for Computer Phys. Comm. 
- is available at https://www.abinit.org/sites/default/files/ABINIT20.pdf .
- The licence allows the authors to put it on the Web.
- DOI and bibtex: see https://docs.abinit.org/theory/bibliography/#gonze2020
-
- [3] Optimized norm-conserving Vanderbilt pseudopotentials.
- D.R. Hamann, Phys. Rev. B 88, 085117 (2013).
- Comment: Some pseudopotential generated using the ONCVPSP code were used.
- DOI and bibtex: see https://docs.abinit.org/theory/bibliography/#hamann2013
-
- [4] ABINIT: Overview, and focus on selected capabilities
- J. Chem. Phys. 152, 124102 (2020).
- A. Romero, D.C. Allan, B. Amadon, G. Antonius, T. Applencourt, L.Baguet,
- J.Bieder, F.Bottin, J.Bouchet, E.Bousquet, F.Bruneval,
- G.Brunin, D.Caliste, M.Cote,
- J.Denier, C. Dreyer, Ph.Ghosez, M.Giantomassi, Y.Gillet, O.Gingras,
- D.R.Hamann, G.Hautier, F.Jollet, G. Jomard,
- A.Martin, 
- H.P.C. Miranda, F.Naccarato, G.Petretto, N.A. Pike, V.Planes,
- S.Prokhorenko, T. Rangel, F.Ricci, G.-M.Rignanese, M.Royo, M.Stengel, M.Torrent,
- M.J.van Setten, B.Van Troeye, M.J.Verstraete, J.Wiktor, J.W.Zwanziger, and X.Gonze.
- Comment: a global overview of ABINIT, with focus on selected capabilities .
- Note that a version of this paper, that is not formatted for J. Chem. Phys 
- is available at https://www.abinit.org/sites/default/files/ABINIT20_JPC.pdf .
- The licence allows the authors to put it on the Web.
- DOI and bibtex: see https://docs.abinit.org/theory/bibliography/#romero2020
-
- [5] Recent developments in the ABINIT software package.
- Computer Phys. Comm. 205, 106 (2016).
- X.Gonze, F.Jollet, F.Abreu Araujo, D.Adams, B.Amadon, T.Applencourt,
- C.Audouze, J.-M.Beuken, J.Bieder, A.Bokhanchuk, E.Bousquet, F.Bruneval
- D.Caliste, M.Cote, F.Dahm, F.Da Pieve, M.Delaveau, M.Di Gennaro,
- B.Dorado, C.Espejo, G.Geneste, L.Genovese, A.Gerossier, M.Giantomassi,
- Y.Gillet, D.R.Hamann, L.He, G.Jomard, J.Laflamme Janssen, S.Le Roux,
- A.Levitt, A.Lherbier, F.Liu, I.Lukacevic, A.Martin, C.Martins,
- M.J.T.Oliveira, S.Ponce, Y.Pouillon, T.Rangel, G.-M.Rignanese,
- A.H.Romero, B.Rousseau, O.Rubel, A.A.Shukri, M.Stankovski, M.Torrent,
- M.J.Van Setten, B.Van Troeye, M.J.Verstraete, D.Waroquier, J.Wiktor,
- B.Xu, A.Zhou, J.W.Zwanziger.
- Comment: the fourth generic paper describing the ABINIT project.
- Note that a version of this paper, that is not formatted for Computer Phys. Comm. 
- is available at https://www.abinit.org/sites/default/files/ABINIT16.pdf .
- The licence allows the authors to put it on the Web.
- DOI and bibtex: see https://docs.abinit.org/theory/bibliography/#gonze2016
 Proc.   0 individual time (sec): cpu=       2449.9  wall=       1365.2

 Calculation completed.
.Delivered   0 WARNINGs and   2 COMMENTs to log file.

--- !FinalSummary
program: abinit
version: 9.2.2
start_datetime: Fri Mar 12 01:28:09 2021
end_datetime: Fri Mar 12 01:50:54 2021
overall_cpu_time:        7500.4
overall_wall_time:        5460.9
exit_requested_by_user: no 
timelimit: 0
pseudos: 
    H   : 314bcaf03656e059fe5e18308886932b
    O   : 53efa4611cf1d581a18f615e1ccbb85d
    Si  : 9cf3649cb539efbe8c67e8db9d375af0
usepaw: 0
mpi_procs: 4
omp_threads: 8
num_warnings: 0
num_comments: 2
...
