  
ABI_PSPDIR  found in environment, with value /Users/ali/Desktop/JDFTX/build-withlibxc/pseudopotentials
-instrng: 172 lines of input have been read from file sth1_relax.in


--- !COMMENT
src_file: m_dtfil.F90
src_line: 1470
message: |
    Output file: sth1_relax.abo already exists.
...


--- !COMMENT
src_file: m_dtfil.F90
src_line: 1494
message: |
    Renaming old: sth1_relax.abo to: sth1_relax.abo0035
...


.Version 9.2.2 of ABINIT 
.(MPI version, prepared for a x86_64_darwin19.6.0_gnu10.2 computer) 

.Copyright (C) 1998-2020 ABINIT group . 
 ABINIT comes with ABSOLUTELY NO WARRANTY.
 It is free software, and you are welcome to redistribute it
 under certain conditions (GNU General Public License,
 see ~abinit/COPYING or http://www.gnu.org/copyleft/gpl.txt).

 ABINIT is a project of the Universite Catholique de Louvain,
 Corning Inc. and other collaborators, see ~abinit/doc/developers/contributors.txt .
 Please read https://docs.abinit.org/theory/acknowledgments for suggested
 acknowledgments of the ABINIT effort.
 For more information, see https://www.abinit.org .

.Starting date : Tue 16 Mar 2021.
- ( at 16h59 )
  

 ++++++++++++++++++++++++++++++++++++++++++++++++++++++++++++++++++++++++++++++

 === Build Information === 
  Version       : 9.2.2
  Build target  : x86_64_darwin19.6.0_gnu10.2
  Build date    : 20201112

 === Compiler Suite === 
  C compiler       : llvm12.0
  C++ compiler     : llvm12.0
  Fortran compiler : gnu10.2
  CFLAGS           : -g -O2 -mtune=native -mcpu=native
  CXXFLAGS         : -g -O2 -mtune=native -mcpu=native
  FCFLAGS          : -g -ffree-line-length-none -fallow-argument-mismatch -fallow-argume ...
  FC_LDFLAGS       : 

 === Optimizations === 
  Debug level        : basic
  Optimization level : standard
  Architecture       : unknown_unknown

 === Multicore === 
  Parallel build : yes
  Parallel I/O   : 
  openMP support : yes
  GPU support    : 

 === Connectors / Fallbacks === 
  LINALG flavor  : netlib
  FFT flavor     : fftw3
  HDF5           : yes
  NetCDF         : yes
  NetCDF Fortran : yes
  LibXC          : yes
  Wannier90      : yes

 === Experimental features === 
  Exports             : 
  GW double-precision : 

 ++++++++++++++++++++++++++++++++++++++++++++++++++++++++++++++++++++++++++++++


 ++++++++++++++++++++++++++++++++++++++++++++++++++++++++++++++++++++++++++++++
 Default optimizations:
   -O2 -mtune=native -march=native


 Optimizations for 43_ptgroups:
   -O0


 ++++++++++++++++++++++++++++++++++++++++++++++++++++++++++++++++++++++++++++++


 ++++++++++++++++++++++++++++++++++++++++++++++++++++++++++++++++++++++++++++++
 CPP options activated during the build:

                   CC_LLVM                  CXX_LLVM                    FC_GNU
 
 HAVE_FC_ALLOCATABLE_DT...             HAVE_FC_ASYNC         HAVE_FC_BACKTRACE
 
  HAVE_FC_COMMAND_ARGUMENT      HAVE_FC_COMMAND_LINE        HAVE_FC_CONTIGUOUS
 
           HAVE_FC_CPUTIME              HAVE_FC_EXIT             HAVE_FC_FLUSH
 
             HAVE_FC_GAMMA            HAVE_FC_GETENV   HAVE_FC_IEEE_ARITHMETIC
 
   HAVE_FC_IEEE_EXCEPTIONS          HAVE_FC_INT_QUAD             HAVE_FC_IOMSG
 
     HAVE_FC_ISO_C_BINDING  HAVE_FC_ISO_FORTRAN_2008        HAVE_FC_LONG_LINES
 
        HAVE_FC_MOVE_ALLOC  HAVE_FC_ON_THE_FLY_SHAPE           HAVE_FC_PRIVATE
 
         HAVE_FC_PROTECTED           HAVE_FC_SHIFTLR         HAVE_FC_STREAM_IO
 
            HAVE_FC_SYSTEM                HAVE_FFTW3            HAVE_FFTW3_MPI
 
          HAVE_FORTRAN2003                 HAVE_HDF5             HAVE_HDF5_MPI
 
        HAVE_LIBPAW_ABINIT      HAVE_LIBTETRA_ABINIT                HAVE_LIBXC
 
         HAVE_LINALG_AXPBY        HAVE_LINALG_GEMM3M     HAVE_LINALG_SCALAPACK
 
     HAVE_LINALG_ZDOTC_B*G     HAVE_LINALG_ZDOTU_B*G                  HAVE_MPI
 
                 HAVE_MPI2         HAVE_MPI2_INPLACE       HAVE_MPI_IALLGATHER
 
       HAVE_MPI_IALLREDUCE        HAVE_MPI_IALLTOALL       HAVE_MPI_IALLTOALLV
 
           HAVE_MPI_IBCAST         HAVE_MPI_IGATHERV        HAVE_MPI_INTEGER16
 
               HAVE_MPI_IO HAVE_MPI_TYPE_CREATE_S...               HAVE_NETCDF
 
       HAVE_NETCDF_FORTRAN   HAVE_NETCDF_FORTRAN_MPI           HAVE_NETCDF_MPI
 
         HAVE_OMP_COLLAPSE               HAVE_OPENMP         HAVE_TIMER_ABINIT
 
            HAVE_WANNIER90                  HAVE_XML                            
 ++++++++++++++++++++++++++++++++++++++++++++++++++++++++++++++++++++++++++++++

- input  file    -> sth1_relax.in
- output file    -> sth1_relax.abo
- root for input  files -> sth1_relaxi
- root for output files -> sth1_relaxo


--- !WARNING
src_file: m_nctk.F90
src_line: 564
message: |
    Netcdf lib does not support MPI-IO and: NetCDF: Parallel operation on file opened for non-parallel access
...

  Asked to delete not existent file: __TMP_FILE__

--- !WARNING
src_file: m_nctk.F90
src_line: 584
message: |
    The netcdf library does not support parallel IO, see message above
    Abinit won't be able to produce files in parallel e.g. when paral_kgb==1 is used.
    Action: install a netcdf4+HDF5 library with MPI-IO support.
...

ABI_PSPDIR  found in environment, with value /Users/ali/Desktop/JDFTX/build-withlibxc/pseudopotentials
-instrng: 172 lines of input have been read from file sth1_relax.in

 For atom type 1, psp file is /Users/ali/Desktop/JDFTX/build-withlibxc/pseudopotentials/H.psp8
 For atom type 2, psp file is /Users/ali/Desktop/JDFTX/build-withlibxc/pseudopotentials/O.psp8
 For atom type 3, psp file is /Users/ali/Desktop/JDFTX/build-withlibxc/pseudopotentials/Si.psp8
  read the values zionpsp=  1.0 , pspcod=   8 , lmax=   1
  read the values zionpsp=  6.0 , pspcod=   8 , lmax=   2
  read the values zionpsp=  4.0 , pspcod=   8 , lmax=   2

 inpspheads: deduce mpsang = 3, n1xccc = 2501.

======================================================= 
 invars1m : enter jdtset= 11

 symlatt: the Bravais lattice is cP (primitive cubic)
  xcart  is defined in input file (possibly in Angstrom)
 ingeo: takes atomic coordinates from input array xcart

--- !WARNING
src_file: m_ingeo.F90
src_line: 887
message: |
    The tolerance on symmetries =   1.000E-05 is bigger than 1.0e-8.
    In order to avoid spurious effects, the atomic coordinates have been
    symmetrized before storing them in the dataset internal variable.
    So, do not be surprised by the fact that your input variables (xcart, xred, ...)
    do not correspond to the ones echoed by ABINIT, the latter being used to do the calculations.
    In order to avoid this symmetrization (e.g. for specific debugging/development), decrease tolsym to 1.0e-8 or lower.
...


 symlatt: the Bravais lattice is cP (primitive cubic)

 symlatt: the Bravais lattice is cP (primitive cubic)
 symspgr: spgroup= 215  P-4 3 m   (=Td^1)
 symspgr: optical characteristics = isotropic
 inkpts: Sum of 1 k point weights is    1.000000

======================================================= 
 invars1m : enter jdtset= 12

 symlatt: the Bravais lattice is cP (primitive cubic)
  xcart  is defined in input file (possibly in Angstrom)
 ingeo: takes atomic coordinates from input array xcart

--- !WARNING
src_file: m_ingeo.F90
src_line: 887
message: |
    The tolerance on symmetries =   1.000E-05 is bigger than 1.0e-8.
    In order to avoid spurious effects, the atomic coordinates have been
    symmetrized before storing them in the dataset internal variable.
    So, do not be surprised by the fact that your input variables (xcart, xred, ...)
    do not correspond to the ones echoed by ABINIT, the latter being used to do the calculations.
    In order to avoid this symmetrization (e.g. for specific debugging/development), decrease tolsym to 1.0e-8 or lower.
...


 symlatt: the Bravais lattice is cP (primitive cubic)

 symlatt: the Bravais lattice is cP (primitive cubic)
 symspgr: spgroup= 215  P-4 3 m   (=Td^1)
 symspgr: optical characteristics = isotropic
 inkpts: Sum of 1 k point weights is    1.000000

======================================================= 
 invars1m : enter jdtset= 13

 symlatt: the Bravais lattice is cP (primitive cubic)
  xcart  is defined in input file (possibly in Angstrom)
 ingeo: takes atomic coordinates from input array xcart

--- !WARNING
src_file: m_ingeo.F90
src_line: 887
message: |
    The tolerance on symmetries =   1.000E-05 is bigger than 1.0e-8.
    In order to avoid spurious effects, the atomic coordinates have been
    symmetrized before storing them in the dataset internal variable.
    So, do not be surprised by the fact that your input variables (xcart, xred, ...)
    do not correspond to the ones echoed by ABINIT, the latter being used to do the calculations.
    In order to avoid this symmetrization (e.g. for specific debugging/development), decrease tolsym to 1.0e-8 or lower.
...


 symlatt: the Bravais lattice is cP (primitive cubic)

 symlatt: the Bravais lattice is cP (primitive cubic)
 symspgr: spgroup= 215  P-4 3 m   (=Td^1)
 symspgr: optical characteristics = isotropic
 inkpts: Sum of 1 k point weights is    1.000000

======================================================= 
 invars1m : enter jdtset= 14

 symlatt: the Bravais lattice is cP (primitive cubic)
  xcart  is defined in input file (possibly in Angstrom)
 ingeo: takes atomic coordinates from input array xcart

--- !WARNING
src_file: m_ingeo.F90
src_line: 887
message: |
    The tolerance on symmetries =   1.000E-05 is bigger than 1.0e-8.
    In order to avoid spurious effects, the atomic coordinates have been
    symmetrized before storing them in the dataset internal variable.
    So, do not be surprised by the fact that your input variables (xcart, xred, ...)
    do not correspond to the ones echoed by ABINIT, the latter being used to do the calculations.
    In order to avoid this symmetrization (e.g. for specific debugging/development), decrease tolsym to 1.0e-8 or lower.
...


 symlatt: the Bravais lattice is cP (primitive cubic)

 symlatt: the Bravais lattice is cP (primitive cubic)
 symspgr: spgroup= 215  P-4 3 m   (=Td^1)
 symspgr: optical characteristics = isotropic
 inkpts: Sum of 1 k point weights is    1.000000

======================================================= 
 invars1m : enter jdtset= 15

 symlatt: the Bravais lattice is cP (primitive cubic)
  xcart  is defined in input file (possibly in Angstrom)
 ingeo: takes atomic coordinates from input array xcart

--- !WARNING
src_file: m_ingeo.F90
src_line: 887
message: |
    The tolerance on symmetries =   1.000E-05 is bigger than 1.0e-8.
    In order to avoid spurious effects, the atomic coordinates have been
    symmetrized before storing them in the dataset internal variable.
    So, do not be surprised by the fact that your input variables (xcart, xred, ...)
    do not correspond to the ones echoed by ABINIT, the latter being used to do the calculations.
    In order to avoid this symmetrization (e.g. for specific debugging/development), decrease tolsym to 1.0e-8 or lower.
...


 symlatt: the Bravais lattice is cP (primitive cubic)

 symlatt: the Bravais lattice is cP (primitive cubic)
 symspgr: spgroup= 215  P-4 3 m   (=Td^1)
 symspgr: optical characteristics = isotropic
 inkpts: Sum of 1 k point weights is    1.000000

======================================================= 
 invars1m : enter jdtset= 21

 symlatt: the Bravais lattice is cP (primitive cubic)
  xcart  is defined in input file (possibly in Angstrom)
 ingeo: takes atomic coordinates from input array xcart

--- !WARNING
src_file: m_ingeo.F90
src_line: 887
message: |
    The tolerance on symmetries =   1.000E-05 is bigger than 1.0e-8.
    In order to avoid spurious effects, the atomic coordinates have been
    symmetrized before storing them in the dataset internal variable.
    So, do not be surprised by the fact that your input variables (xcart, xred, ...)
    do not correspond to the ones echoed by ABINIT, the latter being used to do the calculations.
    In order to avoid this symmetrization (e.g. for specific debugging/development), decrease tolsym to 1.0e-8 or lower.
...


 symlatt: the Bravais lattice is cP (primitive cubic)

 symlatt: the Bravais lattice is cP (primitive cubic)
 symspgr: spgroup= 215  P-4 3 m   (=Td^1)
 symspgr: optical characteristics = isotropic
 inkpts: Sum of 1 k point weights is    1.000000

======================================================= 
 invars1m : enter jdtset= 22

 symlatt: the Bravais lattice is cP (primitive cubic)
  xcart  is defined in input file (possibly in Angstrom)
 ingeo: takes atomic coordinates from input array xcart

--- !WARNING
src_file: m_ingeo.F90
src_line: 887
message: |
    The tolerance on symmetries =   1.000E-05 is bigger than 1.0e-8.
    In order to avoid spurious effects, the atomic coordinates have been
    symmetrized before storing them in the dataset internal variable.
    So, do not be surprised by the fact that your input variables (xcart, xred, ...)
    do not correspond to the ones echoed by ABINIT, the latter being used to do the calculations.
    In order to avoid this symmetrization (e.g. for specific debugging/development), decrease tolsym to 1.0e-8 or lower.
...


 symlatt: the Bravais lattice is cP (primitive cubic)

 symlatt: the Bravais lattice is cP (primitive cubic)
 symspgr: spgroup= 215  P-4 3 m   (=Td^1)
 symspgr: optical characteristics = isotropic
 inkpts: Sum of 1 k point weights is    1.000000

======================================================= 
 invars1m : enter jdtset= 23

 symlatt: the Bravais lattice is cP (primitive cubic)
  xcart  is defined in input file (possibly in Angstrom)
 ingeo: takes atomic coordinates from input array xcart

--- !WARNING
src_file: m_ingeo.F90
src_line: 887
message: |
    The tolerance on symmetries =   1.000E-05 is bigger than 1.0e-8.
    In order to avoid spurious effects, the atomic coordinates have been
    symmetrized before storing them in the dataset internal variable.
    So, do not be surprised by the fact that your input variables (xcart, xred, ...)
    do not correspond to the ones echoed by ABINIT, the latter being used to do the calculations.
    In order to avoid this symmetrization (e.g. for specific debugging/development), decrease tolsym to 1.0e-8 or lower.
...


 symlatt: the Bravais lattice is cP (primitive cubic)

 symlatt: the Bravais lattice is cP (primitive cubic)
 symspgr: spgroup= 215  P-4 3 m   (=Td^1)
 symspgr: optical characteristics = isotropic
 inkpts: Sum of 1 k point weights is    1.000000

======================================================= 
 invars1m : enter jdtset= 24

 symlatt: the Bravais lattice is cP (primitive cubic)
  xcart  is defined in input file (possibly in Angstrom)
 ingeo: takes atomic coordinates from input array xcart

--- !WARNING
src_file: m_ingeo.F90
src_line: 887
message: |
    The tolerance on symmetries =   1.000E-05 is bigger than 1.0e-8.
    In order to avoid spurious effects, the atomic coordinates have been
    symmetrized before storing them in the dataset internal variable.
    So, do not be surprised by the fact that your input variables (xcart, xred, ...)
    do not correspond to the ones echoed by ABINIT, the latter being used to do the calculations.
    In order to avoid this symmetrization (e.g. for specific debugging/development), decrease tolsym to 1.0e-8 or lower.
...


 symlatt: the Bravais lattice is cP (primitive cubic)

 symlatt: the Bravais lattice is cP (primitive cubic)
 symspgr: spgroup= 215  P-4 3 m   (=Td^1)
 symspgr: optical characteristics = isotropic
 inkpts: Sum of 1 k point weights is    1.000000

======================================================= 
 invars1m : enter jdtset= 25

 symlatt: the Bravais lattice is cP (primitive cubic)
  xcart  is defined in input file (possibly in Angstrom)
 ingeo: takes atomic coordinates from input array xcart

--- !WARNING
src_file: m_ingeo.F90
src_line: 887
message: |
    The tolerance on symmetries =   1.000E-05 is bigger than 1.0e-8.
    In order to avoid spurious effects, the atomic coordinates have been
    symmetrized before storing them in the dataset internal variable.
    So, do not be surprised by the fact that your input variables (xcart, xred, ...)
    do not correspond to the ones echoed by ABINIT, the latter being used to do the calculations.
    In order to avoid this symmetrization (e.g. for specific debugging/development), decrease tolsym to 1.0e-8 or lower.
...


 symlatt: the Bravais lattice is cP (primitive cubic)

 symlatt: the Bravais lattice is cP (primitive cubic)
 symspgr: spgroup= 215  P-4 3 m   (=Td^1)
 symspgr: optical characteristics = isotropic
 inkpts: Sum of 1 k point weights is    1.000000
 inkpts: Sum of 1 k point weights is    1.000000
 dtset_chkneu: initialized the occupation numbers for occopt= 3
    spin up   values:
 inkpts: Sum of 1 k point weights is    1.000000
 dtset_chkneu: initialized the occupation numbers for occopt= 3
    spin up   values:
 inkpts: Sum of 1 k point weights is    1.000000
 dtset_chkneu: initialized the occupation numbers for occopt= 3
    spin up   values:
 inkpts: Sum of 1 k point weights is    1.000000
 dtset_chkneu: initialized the occupation numbers for occopt= 3
    spin up   values:
 inkpts: Sum of 1 k point weights is    1.000000
 dtset_chkneu: initialized the occupation numbers for occopt= 3
    spin up   values:
 inkpts: Sum of 1 k point weights is    1.000000
 dtset_chkneu: initialized the occupation numbers for occopt= 3
    spin up   values:
 inkpts: Sum of 1 k point weights is    1.000000
 dtset_chkneu: initialized the occupation numbers for occopt= 3
    spin up   values:
 inkpts: Sum of 1 k point weights is    1.000000
 dtset_chkneu: initialized the occupation numbers for occopt= 3
    spin up   values:
 inkpts: Sum of 1 k point weights is    1.000000
 dtset_chkneu: initialized the occupation numbers for occopt= 3
    spin up   values:
 inkpts: Sum of 1 k point weights is    1.000000
 dtset_chkneu: initialized the occupation numbers for occopt= 3
    spin up   values:
 For input ecut=  5.000000E+00 best grid ngfft=      32      32      32
       max ecut=  5.614708E+00

 ==== FFT mesh ====
  FFT mesh divisions ........................    32   32   32
  Augmented FFT divisions ...................    33   33   32
  FFT algorithm .............................   312
  FFT cache size ............................    16
 getmpw: optimal value of mpw= 1791
 For input ecut=  1.300000E+01 best grid ngfft=      50      50      50
       max ecut=  1.370778E+01

 ==== FFT mesh ====
  FFT mesh divisions ........................    50   50   50
  Augmented FFT divisions ...................    51   51   50
  FFT algorithm .............................   312
  FFT cache size ............................    16
 getmpw: optimal value of mpw= 7521
 For input ecut=  2.100000E+01 best grid ngfft=      64      64      64
       max ecut=  2.245883E+01

 ==== FFT mesh ====
  FFT mesh divisions ........................    64   64   64
  Augmented FFT divisions ...................    65   65   64
  FFT algorithm .............................   312
  FFT cache size ............................    16
 getmpw: optimal value of mpw= 15515
 For input ecut=  2.900000E+01 best grid ngfft=      75      75      75
       max ecut=  3.002553E+01

 ==== FFT mesh ====
  FFT mesh divisions ........................    75   75   75
  Augmented FFT divisions ...................    75   75   75
  FFT algorithm .............................   312
  FFT cache size ............................    16
 getmpw: optimal value of mpw= 25269
 For input ecut=  3.700000E+01 best grid ngfft=      90      90      90
       max ecut=  4.441322E+01

 ==== FFT mesh ====
  FFT mesh divisions ........................    90   90   90
  Augmented FFT divisions ...................    91   91   90
  FFT algorithm .............................   312
  FFT cache size ............................    16
 getmpw: optimal value of mpw= 36257
 For input ecut=  5.000000E+00 best grid ngfft=      64      64      64
       max ecut=  5.614708E+00

 ==== FFT mesh ====
  FFT mesh divisions ........................    64   64   64
  Augmented FFT divisions ...................    65   65   64
  FFT algorithm .............................   312
  FFT cache size ............................    16
 getmpw: optimal value of mpw= 14363
 For input ecut=  1.300000E+01 best grid ngfft=     100     100     100
       max ecut=  1.370778E+01

 ==== FFT mesh ====
  FFT mesh divisions ........................   100  100  100
  Augmented FFT divisions ...................   101  101  100
  FFT algorithm .............................   312
  FFT cache size ............................    16
 getmpw: optimal value of mpw= 60269
 For input ecut=  2.100000E+01 best grid ngfft=     125     125     125
       max ecut=  2.107709E+01

 ==== FFT mesh ====
  FFT mesh divisions ........................   125  125  125
  Augmented FFT divisions ...................   125  125  125
  FFT algorithm .............................   312
  FFT cache size ............................    16
 getmpw: optimal value of mpw= 124097
 For input ecut=  2.900000E+01 best grid ngfft=     150     150     150
       max ecut=  3.084251E+01

 ==== FFT mesh ====
  FFT mesh divisions ........................   150  150  150
  Augmented FFT divisions ...................   151  151  150
  FFT algorithm .............................   312
  FFT cache size ............................    16
 getmpw: optimal value of mpw= 201485
 For input ecut=  3.700000E+01 best grid ngfft=     180     180     180
       max ecut=  4.441322E+01

 ==== FFT mesh ====
  FFT mesh divisions ........................   180  180  180
  Augmented FFT divisions ...................   181  181  180
  FFT algorithm .............................   312
  FFT cache size ............................    16
 getmpw: optimal value of mpw= 290243

 DATASET   11 : space group P-4 3 m (#215); Bravais cP (primitive cubic)

 getdim_nloc : deduce lmnmax  =  18, lnmax  =   6,
                      lmnmaxso=  18, lnmaxso=   6.
memory: analysis of memory needs
================================================================================
 Values of the parameters that define the memory need for DATASET 11.
     intxc =       0    ionmov =       0      iscf =       7    lmnmax =       6
     lnmax =       6     mgfft =      32  mpssoang =       3    mqgrid =    3001
     natom =      21  nloc_mem =       1    nspden =       2   nspinor =       1
    nsppol =       2      nsym =      24    n1xccc =    2501    ntypat =       3
    occopt =       3   xclevel =       1
-    mband =         100        mffmem =           1         mkmem =           1
       mpw =        1791          nfft =       32768          nkpt =           1
================================================================================
P This job should need less than                      23.356 Mbytes of memory.
  Rough estimation (10% accuracy) of disk space for files :
_ WF disk file :      5.468 Mbytes ; DEN or POT disk file :      0.502 Mbytes.
================================================================================

 Biggest array : f_fftgr(disk), with      8.0020 MBytes.
 memana : allocated an array of      8.002 Mbytes, for testing purposes.
 memana: allocated      23.356Mbytes, for testing purposes. 
 The job will continue.

 DATASET   12 : space group P-4 3 m (#215); Bravais cP (primitive cubic)

 getdim_nloc : deduce lmnmax  =  18, lnmax  =   6,
                      lmnmaxso=  18, lnmaxso=   6.
memory: analysis of memory needs
================================================================================
 Values of the parameters that define the memory need for DATASET 12.
     intxc =       0    ionmov =       0      iscf =       7    lmnmax =       6
     lnmax =       6     mgfft =      50  mpssoang =       3    mqgrid =    3001
     natom =      21  nloc_mem =       1    nspden =       2   nspinor =       1
    nsppol =       2      nsym =      24    n1xccc =    2501    ntypat =       3
    occopt =       3   xclevel =       1
-    mband =         100        mffmem =           1         mkmem =           1
       mpw =        7521          nfft =      125000          nkpt =           1
================================================================================
P This job should need less than                      83.608 Mbytes of memory.
  Rough estimation (10% accuracy) of disk space for files :
_ WF disk file :     22.954 Mbytes ; DEN or POT disk file :      1.909 Mbytes.
================================================================================

 Biggest array : f_fftgr(disk), with     30.5196 MBytes.
 memana : allocated an array of     30.520 Mbytes, for testing purposes.
 memana: allocated      83.608Mbytes, for testing purposes. 
 The job will continue.

 DATASET   13 : space group P-4 3 m (#215); Bravais cP (primitive cubic)

 getdim_nloc : deduce lmnmax  =  18, lnmax  =   6,
                      lmnmaxso=  18, lnmaxso=   6.
memory: analysis of memory needs
================================================================================
 Values of the parameters that define the memory need for DATASET 13.
     intxc =       0    ionmov =       0      iscf =       7    lmnmax =       6
     lnmax =       6     mgfft =      64  mpssoang =       3    mqgrid =    3095
     natom =      21  nloc_mem =       1    nspden =       2   nspinor =       1
    nsppol =       2      nsym =      24    n1xccc =    2501    ntypat =       3
    occopt =       3   xclevel =       1
-    mband =         100        mffmem =           1         mkmem =           1
       mpw =       15515          nfft =      262144          nkpt =           1
================================================================================
P This job should need less than                     171.268 Mbytes of memory.
  Rough estimation (10% accuracy) of disk space for files :
_ WF disk file :     47.350 Mbytes ; DEN or POT disk file :      4.002 Mbytes.
================================================================================

 Biggest array : f_fftgr(disk), with     64.0020 MBytes.
 memana : allocated an array of     64.002 Mbytes, for testing purposes.
 memana: allocated     171.268Mbytes, for testing purposes. 
 The job will continue.

 DATASET   14 : space group P-4 3 m (#215); Bravais cP (primitive cubic)

 getdim_nloc : deduce lmnmax  =  18, lnmax  =   6,
                      lmnmaxso=  18, lnmaxso=   6.
memory: analysis of memory needs
================================================================================
 Values of the parameters that define the memory need for DATASET 14.
     intxc =       0    ionmov =       0      iscf =       7    lmnmax =       6
     lnmax =       6     mgfft =      75  mpssoang =       3    mqgrid =    3637
     natom =      21  nloc_mem =       1    nspden =       2   nspinor =       1
    nsppol =       2      nsym =      24    n1xccc =    2501    ntypat =       3
    occopt =       3   xclevel =       1
-    mband =         100        mffmem =           1         mkmem =           1
       mpw =       25269          nfft =      421875          nkpt =           1
================================================================================
P This job should need less than                     274.737 Mbytes of memory.
  Rough estimation (10% accuracy) of disk space for files :
_ WF disk file :     77.117 Mbytes ; DEN or POT disk file :      6.439 Mbytes.
================================================================================

 Biggest array : f_fftgr(disk), with    102.9988 MBytes.
 memana : allocated an array of    102.999 Mbytes, for testing purposes.
 memana: allocated     274.737Mbytes, for testing purposes. 
 The job will continue.

 DATASET   15 : space group P-4 3 m (#215); Bravais cP (primitive cubic)

 getdim_nloc : deduce lmnmax  =  18, lnmax  =   6,
                      lmnmaxso=  18, lnmaxso=   6.
memory: analysis of memory needs
================================================================================
 Values of the parameters that define the memory need for DATASET 15.
     intxc =       0    ionmov =       0      iscf =       7    lmnmax =       6
     lnmax =       6     mgfft =      90  mpssoang =       3    mqgrid =    4108
     natom =      21  nloc_mem =       1    nspden =       2   nspinor =       1
    nsppol =       2      nsym =      24    n1xccc =    2501    ntypat =       3
    occopt =       3   xclevel =       1
-    mband =         100        mffmem =           1         mkmem =           1
       mpw =       36257          nfft =      729000          nkpt =           1
================================================================================
P This job should need less than                     446.375 Mbytes of memory.
  Rough estimation (10% accuracy) of disk space for files :
_ WF disk file :    110.650 Mbytes ; DEN or POT disk file :     11.126 Mbytes.
================================================================================

 Biggest array : f_fftgr(disk), with    177.9805 MBytes.
 memana : allocated an array of    177.981 Mbytes, for testing purposes.
 memana: allocated     446.375Mbytes, for testing purposes. 
 The job will continue.

 DATASET   21 : space group P-4 3 m (#215); Bravais cP (primitive cubic)

 getdim_nloc : deduce lmnmax  =  18, lnmax  =   6,
                      lmnmaxso=  18, lnmaxso=   6.
memory: analysis of memory needs
================================================================================
 Values of the parameters that define the memory need for DATASET 21.
     intxc =       0    ionmov =       0      iscf =       7    lmnmax =       6
     lnmax =       6     mgfft =      64  mpssoang =       3    mqgrid =    3020
     natom =      21  nloc_mem =       1    nspden =       2   nspinor =       1
    nsppol =       2      nsym =      24    n1xccc =    2501    ntypat =       3
    occopt =       3   xclevel =       1
-    mband =         100        mffmem =           1         mkmem =           1
       mpw =       14363          nfft =      262144          nkpt =           1
================================================================================
P This job should need less than                     167.076 Mbytes of memory.
  Rough estimation (10% accuracy) of disk space for files :
_ WF disk file :     43.834 Mbytes ; DEN or POT disk file :      4.002 Mbytes.
================================================================================

 Biggest array : f_fftgr(disk), with     64.0020 MBytes.
 memana : allocated an array of     64.002 Mbytes, for testing purposes.
 memana: allocated     167.076Mbytes, for testing purposes. 
 The job will continue.

 DATASET   22 : space group P-4 3 m (#215); Bravais cP (primitive cubic)

 getdim_nloc : deduce lmnmax  =  18, lnmax  =   6,
                      lmnmaxso=  18, lnmaxso=   6.
memory: analysis of memory needs
================================================================================
 Values of the parameters that define the memory need for DATASET 22.
     intxc =       0    ionmov =       0      iscf =       7    lmnmax =       6
     lnmax =       6     mgfft =     100  mpssoang =       3    mqgrid =    4870
     natom =      21  nloc_mem =       1    nspden =       2   nspinor =       1
    nsppol =       2      nsym =      24    n1xccc =    2501    ntypat =       3
    occopt =       3   xclevel =       1
-    mband =         100        mffmem =           1         mkmem =           1
       mpw =       60269          nfft =     1000000          nkpt =           1
================================================================================
P This job should need less than                     649.386 Mbytes of memory.
  Rough estimation (10% accuracy) of disk space for files :
_ WF disk file :    183.928 Mbytes ; DEN or POT disk file :     15.261 Mbytes.
================================================================================

 Biggest array : f_fftgr(disk), with    244.1426 MBytes.
 memana : allocated an array of    244.143 Mbytes, for testing purposes.
 memana: allocated     649.386Mbytes, for testing purposes. 
 The job will continue.

 DATASET   23 : space group P-4 3 m (#215); Bravais cP (primitive cubic)

 getdim_nloc : deduce lmnmax  =  18, lnmax  =   6,
                      lmnmaxso=  18, lnmaxso=   6.
memory: analysis of memory needs
================================================================================
 Values of the parameters that define the memory need for DATASET 23.
     intxc =       0    ionmov =       0      iscf =       7    lmnmax =       6
     lnmax =       6     mgfft =     125  mpssoang =       3    mqgrid =    6189
     natom =      21  nloc_mem =       1    nspden =       2   nspinor =       1
    nsppol =       2      nsym =      24    n1xccc =    2501    ntypat =       3
    occopt =       3   xclevel =       1
-    mband =         100        mffmem =           1         mkmem =           1
       mpw =      124097          nfft =     1953125          nkpt =           1
================================================================================
P This job should need less than                    1287.305 Mbytes of memory.
  Rough estimation (10% accuracy) of disk space for files :
_ WF disk file :    378.716 Mbytes ; DEN or POT disk file :     29.804 Mbytes.
================================================================================

 Biggest array : f_fftgr(disk), with    476.8392 MBytes.
 memana : allocated an array of    476.839 Mbytes, for testing purposes.
 memana: allocated    1287.305Mbytes, for testing purposes. 
 The job will continue.

 DATASET   24 : space group P-4 3 m (#215); Bravais cP (primitive cubic)

 getdim_nloc : deduce lmnmax  =  18, lnmax  =   6,
                      lmnmaxso=  18, lnmaxso=   6.
memory: analysis of memory needs
================================================================================
 Values of the parameters that define the memory need for DATASET 24.
     intxc =       0    ionmov =       0      iscf =       7    lmnmax =       6
     lnmax =       6     mgfft =     150  mpssoang =       3    mqgrid =    7273
     natom =      21  nloc_mem =       1    nspden =       2   nspinor =       1
    nsppol =       2      nsym =      24    n1xccc =    2501    ntypat =       3
    occopt =       3   xclevel =       1
-    mband =         100        mffmem =           1         mkmem =           1
       mpw =      201485          nfft =     3375000          nkpt =           1
================================================================================
P This job should need less than                    2176.446 Mbytes of memory.
  Rough estimation (10% accuracy) of disk space for files :
_ WF disk file :    614.885 Mbytes ; DEN or POT disk file :     51.500 Mbytes.
================================================================================

 Biggest array : f_fftgr(disk), with    823.9766 MBytes.
 memana : allocated an array of    823.977 Mbytes, for testing purposes.
 memana: allocated    2176.446Mbytes, for testing purposes. 
 The job will continue.

 DATASET   25 : space group P-4 3 m (#215); Bravais cP (primitive cubic)

 getdim_nloc : deduce lmnmax  =  18, lnmax  =   6,
                      lmnmaxso=  18, lnmaxso=   6.
memory: analysis of memory needs
================================================================================
 Values of the parameters that define the memory need for DATASET 25.
     intxc =       0    ionmov =       0      iscf =       7    lmnmax =       6
     lnmax =       6     mgfft =     180  mpssoang =       3    mqgrid =    8215
     natom =      21  nloc_mem =       1    nspden =       2   nspinor =       1
    nsppol =       2      nsym =      24    n1xccc =    2501    ntypat =       3
    occopt =       3   xclevel =       1
-    mband =         100        mffmem =           1         mkmem =           1
       mpw =      290243          nfft =     5832000          nkpt =           1
================================================================================
P This job should need less than                    3548.148 Mbytes of memory.
  Rough estimation (10% accuracy) of disk space for files :
_ WF disk file :    885.753 Mbytes ; DEN or POT disk file :     88.991 Mbytes.
================================================================================

 Biggest array : f_fftgr(disk), with   1423.8301 MBytes.
 memana : allocated an array of   1423.830 Mbytes, for testing purposes.
 memana: allocated    3548.148Mbytes, for testing purposes. 
 The job will continue.

--- !COMMENT
src_file: m_outvars.F90
src_line: 212
message: |
    output of OUT.nc has been disabled. Too many datasets
...

--------------------------------------------------------------------------------
------------- Echo of variables that govern the present computation ------------
--------------------------------------------------------------------------------
-
- outvars: echo of selected default values                                      
-   iomode0 =  0 , fftalg0 =312 , wfoptalg0 =  0
-
- outvars: echo of global parameters not present in the input file              
-  max_nthreads =    8
-
 -outvars: echo values of preprocessed input variables --------

--- !COMMENT
src_file: m_outvars.F90
src_line: 212
message: |
    output of OUT.nc has been disabled. Too many datasets
...

            acell11    1.5000000000E+01  1.5000000000E+01  1.5000000000E+01 Bohr
            acell12    1.5000000000E+01  1.5000000000E+01  1.5000000000E+01 Bohr
            acell13    1.5000000000E+01  1.5000000000E+01  1.5000000000E+01 Bohr
            acell14    1.5000000000E+01  1.5000000000E+01  1.5000000000E+01 Bohr
            acell15    1.5000000000E+01  1.5000000000E+01  1.5000000000E+01 Bohr
            acell21    3.0000000000E+01  3.0000000000E+01  3.0000000000E+01 Bohr
            acell22    3.0000000000E+01  3.0000000000E+01  3.0000000000E+01 Bohr
            acell23    3.0000000000E+01  3.0000000000E+01  3.0000000000E+01 Bohr
            acell24    3.0000000000E+01  3.0000000000E+01  3.0000000000E+01 Bohr
            acell25    3.0000000000E+01  3.0000000000E+01  3.0000000000E+01 Bohr
              amu      1.00794000E+00  1.59994000E+01  2.80855000E+01
           charge      1.00000000E+00
           diemac      1.20000000E+01
             ecut11    5.00000000E+00 Hartree
             ecut12    1.30000000E+01 Hartree
             ecut13    2.10000000E+01 Hartree
             ecut14    2.90000000E+01 Hartree
             ecut15    3.70000000E+01 Hartree
             ecut21    5.00000000E+00 Hartree
             ecut22    1.30000000E+01 Hartree
             ecut23    2.10000000E+01 Hartree
             ecut24    2.90000000E+01 Hartree
             ecut25    3.70000000E+01 Hartree
-          fftalg         312
           istwfk        1
              ixc       -1012
           jdtset       11   12   13   14   15   21   22   23   24   25
           kptopt           0
P           mkmem           1
            natom          21
            nband         100
           ndtset          10
            ngfft11        32      32      32
            ngfft12        50      50      50
            ngfft13        64      64      64
            ngfft14        75      75      75
            ngfft15        90      90      90
            ngfft21        64      64      64
            ngfft22       100     100     100
            ngfft23       125     125     125
            ngfft24       150     150     150
            ngfft25       180     180     180
             nkpt           1
           nspden           2
           nsppol           2
            nstep         100
             nsym          24
           ntypat           3
              occ      1.000000  1.000000  1.000000  1.000000  1.000000  1.000000
                       1.000000  1.000000  1.000000  1.000000  1.000000  1.000000
                       1.000000  1.000000  1.000000  1.000000  1.000000  1.000000
                       1.000000  1.000000  1.000000  1.000000  1.000000  1.000000
                       1.000000  1.000000  1.000000  1.000000  0.000000  0.000000
                       0.000000  0.000000  0.000000  0.000000  0.000000  0.000000
                       0.000000  0.000000  0.000000  0.000000  0.000000  0.000000
                       0.000000  0.000000  0.000000  0.000000  0.000000  0.000000
                       0.000000  0.000000  0.000000  0.000000  0.000000  0.000000
                       0.000000  0.000000  0.000000  0.000000  0.000000  0.000000
                       0.000000  0.000000  0.000000  0.000000  0.000000  0.000000
                       0.000000  0.000000  0.000000  0.000000  0.000000  0.000000
                       0.000000  0.000000  0.000000  0.000000  0.000000  0.000000
                       0.000000  0.000000  0.000000  0.000000  0.000000  0.000000
                       0.000000  0.000000  0.000000  0.000000  0.000000  0.000000
                       0.000000  0.000000  0.000000  0.000000  0.000000  0.000000
                       0.000000  0.000000  0.000000  0.000000
                       1.000000  1.000000  1.000000  1.000000  1.000000  1.000000
                       1.000000  1.000000  1.000000  1.000000  1.000000  1.000000
                       1.000000  1.000000  1.000000  1.000000  1.000000  1.000000
                       1.000000  1.000000  1.000000  1.000000  1.000000  1.000000
                       1.000000  1.000000  1.000000  0.000000  0.000000  0.000000
                       0.000000  0.000000  0.000000  0.000000  0.000000  0.000000
                       0.000000  0.000000  0.000000  0.000000  0.000000  0.000000
                       0.000000  0.000000  0.000000  0.000000  0.000000  0.000000
                       0.000000  0.000000  0.000000  0.000000  0.000000  0.000000
                       0.000000  0.000000  0.000000  0.000000  0.000000  0.000000
                       0.000000  0.000000  0.000000  0.000000  0.000000  0.000000
                       0.000000  0.000000  0.000000  0.000000  0.000000  0.000000
                       0.000000  0.000000  0.000000  0.000000  0.000000  0.000000
                       0.000000  0.000000  0.000000  0.000000  0.000000  0.000000
                       0.000000  0.000000  0.000000  0.000000  0.000000  0.000000
                       0.000000  0.000000  0.000000  0.000000  0.000000  0.000000
                       0.000000  0.000000  0.000000  0.000000
           occopt           3
        optforces           1
          spgroup         215
           spinat      0.0000000000E+00  0.0000000000E+00  1.0000000000E-01
                       0.0000000000E+00  0.0000000000E+00  1.0000000000E-01
                       0.0000000000E+00  0.0000000000E+00  1.0000000000E-01
                       0.0000000000E+00  0.0000000000E+00  1.0000000000E-01
                       0.0000000000E+00  0.0000000000E+00  1.0000000000E-01
                       0.0000000000E+00  0.0000000000E+00  1.0000000000E-01
                       0.0000000000E+00  0.0000000000E+00  1.0000000000E-01
                       0.0000000000E+00  0.0000000000E+00  1.0000000000E-01
                       0.0000000000E+00  0.0000000000E+00  1.0000000000E-01
                       0.0000000000E+00  0.0000000000E+00  1.0000000000E-01
                       0.0000000000E+00  0.0000000000E+00  1.0000000000E-01
                       0.0000000000E+00  0.0000000000E+00  1.0000000000E-01
                       0.0000000000E+00  0.0000000000E+00  1.0000000000E-01
                       0.0000000000E+00  0.0000000000E+00  1.0000000000E-01
                       0.0000000000E+00  0.0000000000E+00  1.0000000000E-01
                       0.0000000000E+00  0.0000000000E+00  1.0000000000E-01
                       0.0000000000E+00  0.0000000000E+00  1.0000000000E-01
                       0.0000000000E+00  0.0000000000E+00  1.0000000000E-01
                       0.0000000000E+00  0.0000000000E+00  1.0000000000E-01
                       0.0000000000E+00  0.0000000000E+00  1.0000000000E-01
                       0.0000000000E+00  0.0000000000E+00  1.0000000000E-01
           symrel      1  0  0   0  1  0   0  0  1      -1  0  0   0  1  0   0  0 -1
                      -1  0  0   0 -1  0   0  0  1       1  0  0   0 -1  0   0  0 -1
                       0  1  0   1  0  0   0  0  1       0 -1  0   1  0  0   0  0 -1
                       0 -1  0  -1  0  0   0  0  1       0  1  0  -1  0  0   0  0 -1
                       0  0  1   1  0  0   0  1  0       0  0 -1   1  0  0   0 -1  0
                       0  0 -1  -1  0  0   0  1  0       0  0  1  -1  0  0   0 -1  0
                       1  0  0   0  0  1   0  1  0      -1  0  0   0  0  1   0 -1  0
                      -1  0  0   0  0 -1   0  1  0       1  0  0   0  0 -1   0 -1  0
                       0  1  0   0  0  1   1  0  0       0 -1  0   0  0  1  -1  0  0
                       0 -1  0   0  0 -1   1  0  0       0  1  0   0  0 -1  -1  0  0
                       0  0  1   0  1  0   1  0  0       0  0 -1   0  1  0  -1  0  0
                       0  0 -1   0 -1  0   1  0  0       0  0  1   0 -1  0  -1  0  0
           tolrff      2.00000000E-02
           tsmear      1.00000000E-05 Hartree
            typat      3  3  3  3  3  2  2  2  2  1  1  1  1  1  1  1  1  1  1  1
                       1
           xangst      0.0000000000E+00  0.0000000000E+00  0.0000000000E+00
                       1.8804372284E+00 -1.8804372284E+00 -1.8804372284E+00
                      -1.8804372284E+00  1.8804372284E+00 -1.8804372284E+00
                      -1.8804372284E+00 -1.8804372284E+00  1.8804372284E+00
                       1.8804372284E+00  1.8804372284E+00  1.8804372284E+00
                       9.2904949682E-01 -9.2904949682E-01 -9.2904949682E-01
                      -9.2904949682E-01  9.2904949682E-01 -9.2904949682E-01
                      -9.2904949682E-01 -9.2904949682E-01  9.2904949682E-01
                       9.2904949682E-01  9.2904949682E-01  9.2904949682E-01
                       1.5645349042E+00 -1.5645349042E+00 -3.3105335111E+00
                       1.5645349042E+00 -3.3105335111E+00 -1.5645349042E+00
                       3.3105335111E+00 -1.5645349042E+00 -1.5645349042E+00
                      -1.5645349042E+00  1.5645349042E+00 -3.3105335111E+00
                      -1.5645349042E+00  3.3105335111E+00 -1.5645349042E+00
                      -3.3105335111E+00  1.5645349042E+00 -1.5645349042E+00
                      -1.5645349042E+00 -1.5645349042E+00  3.3105335111E+00
                      -1.5645349042E+00 -3.3105335111E+00  1.5645349042E+00
                      -3.3105335111E+00 -1.5645349042E+00  1.5645349042E+00
                       3.3105335111E+00  1.5645349042E+00  1.5645349042E+00
                       1.5645349042E+00  3.3105335111E+00  1.5645349042E+00
                       1.5645349042E+00  1.5645349042E+00  3.3105335111E+00
            xcart      0.0000000000E+00  0.0000000000E+00  0.0000000000E+00
                       3.5535113717E+00 -3.5535113717E+00 -3.5535113717E+00
                      -3.5535113717E+00  3.5535113717E+00 -3.5535113717E+00
                      -3.5535113717E+00 -3.5535113717E+00  3.5535113717E+00
                       3.5535113717E+00  3.5535113717E+00  3.5535113717E+00
                       1.7556491129E+00 -1.7556491129E+00 -1.7556491129E+00
                      -1.7556491129E+00  1.7556491129E+00 -1.7556491129E+00
                      -1.7556491129E+00 -1.7556491129E+00  1.7556491129E+00
                       1.7556491129E+00  1.7556491129E+00  1.7556491129E+00
                       2.9565424942E+00 -2.9565424942E+00 -6.2560016897E+00
                       2.9565424942E+00 -6.2560016897E+00 -2.9565424942E+00
                       6.2560016897E+00 -2.9565424942E+00 -2.9565424942E+00
                      -2.9565424942E+00  2.9565424942E+00 -6.2560016897E+00
                      -2.9565424942E+00  6.2560016897E+00 -2.9565424942E+00
                      -6.2560016897E+00  2.9565424942E+00 -2.9565424942E+00
                      -2.9565424942E+00 -2.9565424942E+00  6.2560016897E+00
                      -2.9565424942E+00 -6.2560016897E+00  2.9565424942E+00
                      -6.2560016897E+00 -2.9565424942E+00  2.9565424942E+00
                       6.2560016897E+00  2.9565424942E+00  2.9565424942E+00
                       2.9565424942E+00  6.2560016897E+00  2.9565424942E+00
                       2.9565424942E+00  2.9565424942E+00  6.2560016897E+00
             xred11    0.0000000000E+00  0.0000000000E+00  0.0000000000E+00
                       2.3690075811E-01 -2.3690075811E-01 -2.3690075811E-01
                      -2.3690075811E-01  2.3690075811E-01 -2.3690075811E-01
                      -2.3690075811E-01 -2.3690075811E-01  2.3690075811E-01
                       2.3690075811E-01  2.3690075811E-01  2.3690075811E-01
                       1.1704327419E-01 -1.1704327419E-01 -1.1704327419E-01
                      -1.1704327419E-01  1.1704327419E-01 -1.1704327419E-01
                      -1.1704327419E-01 -1.1704327419E-01  1.1704327419E-01
                       1.1704327419E-01  1.1704327419E-01  1.1704327419E-01
                       1.9710283295E-01 -1.9710283295E-01 -4.1706677931E-01
                       1.9710283295E-01 -4.1706677931E-01 -1.9710283295E-01
                       4.1706677931E-01 -1.9710283295E-01 -1.9710283295E-01
                      -1.9710283295E-01  1.9710283295E-01 -4.1706677931E-01
                      -1.9710283295E-01  4.1706677931E-01 -1.9710283295E-01
                      -4.1706677931E-01  1.9710283295E-01 -1.9710283295E-01
                      -1.9710283295E-01 -1.9710283295E-01  4.1706677931E-01
                      -1.9710283295E-01 -4.1706677931E-01  1.9710283295E-01
                      -4.1706677931E-01 -1.9710283295E-01  1.9710283295E-01
                       4.1706677931E-01  1.9710283295E-01  1.9710283295E-01
                       1.9710283295E-01  4.1706677931E-01  1.9710283295E-01
                       1.9710283295E-01  1.9710283295E-01  4.1706677931E-01
             xred12    0.0000000000E+00  0.0000000000E+00  0.0000000000E+00
                       2.3690075811E-01 -2.3690075811E-01 -2.3690075811E-01
                      -2.3690075811E-01  2.3690075811E-01 -2.3690075811E-01
                      -2.3690075811E-01 -2.3690075811E-01  2.3690075811E-01
                       2.3690075811E-01  2.3690075811E-01  2.3690075811E-01
                       1.1704327419E-01 -1.1704327419E-01 -1.1704327419E-01
                      -1.1704327419E-01  1.1704327419E-01 -1.1704327419E-01
                      -1.1704327419E-01 -1.1704327419E-01  1.1704327419E-01
                       1.1704327419E-01  1.1704327419E-01  1.1704327419E-01
                       1.9710283295E-01 -1.9710283295E-01 -4.1706677931E-01
                       1.9710283295E-01 -4.1706677931E-01 -1.9710283295E-01
                       4.1706677931E-01 -1.9710283295E-01 -1.9710283295E-01
                      -1.9710283295E-01  1.9710283295E-01 -4.1706677931E-01
                      -1.9710283295E-01  4.1706677931E-01 -1.9710283295E-01
                      -4.1706677931E-01  1.9710283295E-01 -1.9710283295E-01
                      -1.9710283295E-01 -1.9710283295E-01  4.1706677931E-01
                      -1.9710283295E-01 -4.1706677931E-01  1.9710283295E-01
                      -4.1706677931E-01 -1.9710283295E-01  1.9710283295E-01
                       4.1706677931E-01  1.9710283295E-01  1.9710283295E-01
                       1.9710283295E-01  4.1706677931E-01  1.9710283295E-01
                       1.9710283295E-01  1.9710283295E-01  4.1706677931E-01
             xred13    0.0000000000E+00  0.0000000000E+00  0.0000000000E+00
                       2.3690075811E-01 -2.3690075811E-01 -2.3690075811E-01
                      -2.3690075811E-01  2.3690075811E-01 -2.3690075811E-01
                      -2.3690075811E-01 -2.3690075811E-01  2.3690075811E-01
                       2.3690075811E-01  2.3690075811E-01  2.3690075811E-01
                       1.1704327419E-01 -1.1704327419E-01 -1.1704327419E-01
                      -1.1704327419E-01  1.1704327419E-01 -1.1704327419E-01
                      -1.1704327419E-01 -1.1704327419E-01  1.1704327419E-01
                       1.1704327419E-01  1.1704327419E-01  1.1704327419E-01
                       1.9710283295E-01 -1.9710283295E-01 -4.1706677931E-01
                       1.9710283295E-01 -4.1706677931E-01 -1.9710283295E-01
                       4.1706677931E-01 -1.9710283295E-01 -1.9710283295E-01
                      -1.9710283295E-01  1.9710283295E-01 -4.1706677931E-01
                      -1.9710283295E-01  4.1706677931E-01 -1.9710283295E-01
                      -4.1706677931E-01  1.9710283295E-01 -1.9710283295E-01
                      -1.9710283295E-01 -1.9710283295E-01  4.1706677931E-01
                      -1.9710283295E-01 -4.1706677931E-01  1.9710283295E-01
                      -4.1706677931E-01 -1.9710283295E-01  1.9710283295E-01
                       4.1706677931E-01  1.9710283295E-01  1.9710283295E-01
                       1.9710283295E-01  4.1706677931E-01  1.9710283295E-01
                       1.9710283295E-01  1.9710283295E-01  4.1706677931E-01
             xred14    0.0000000000E+00  0.0000000000E+00  0.0000000000E+00
                       2.3690075811E-01 -2.3690075811E-01 -2.3690075811E-01
                      -2.3690075811E-01  2.3690075811E-01 -2.3690075811E-01
                      -2.3690075811E-01 -2.3690075811E-01  2.3690075811E-01
                       2.3690075811E-01  2.3690075811E-01  2.3690075811E-01
                       1.1704327419E-01 -1.1704327419E-01 -1.1704327419E-01
                      -1.1704327419E-01  1.1704327419E-01 -1.1704327419E-01
                      -1.1704327419E-01 -1.1704327419E-01  1.1704327419E-01
                       1.1704327419E-01  1.1704327419E-01  1.1704327419E-01
                       1.9710283295E-01 -1.9710283295E-01 -4.1706677931E-01
                       1.9710283295E-01 -4.1706677931E-01 -1.9710283295E-01
                       4.1706677931E-01 -1.9710283295E-01 -1.9710283295E-01
                      -1.9710283295E-01  1.9710283295E-01 -4.1706677931E-01
                      -1.9710283295E-01  4.1706677931E-01 -1.9710283295E-01
                      -4.1706677931E-01  1.9710283295E-01 -1.9710283295E-01
                      -1.9710283295E-01 -1.9710283295E-01  4.1706677931E-01
                      -1.9710283295E-01 -4.1706677931E-01  1.9710283295E-01
                      -4.1706677931E-01 -1.9710283295E-01  1.9710283295E-01
                       4.1706677931E-01  1.9710283295E-01  1.9710283295E-01
                       1.9710283295E-01  4.1706677931E-01  1.9710283295E-01
                       1.9710283295E-01  1.9710283295E-01  4.1706677931E-01
             xred15    0.0000000000E+00  0.0000000000E+00  0.0000000000E+00
                       2.3690075811E-01 -2.3690075811E-01 -2.3690075811E-01
                      -2.3690075811E-01  2.3690075811E-01 -2.3690075811E-01
                      -2.3690075811E-01 -2.3690075811E-01  2.3690075811E-01
                       2.3690075811E-01  2.3690075811E-01  2.3690075811E-01
                       1.1704327419E-01 -1.1704327419E-01 -1.1704327419E-01
                      -1.1704327419E-01  1.1704327419E-01 -1.1704327419E-01
                      -1.1704327419E-01 -1.1704327419E-01  1.1704327419E-01
                       1.1704327419E-01  1.1704327419E-01  1.1704327419E-01
                       1.9710283295E-01 -1.9710283295E-01 -4.1706677931E-01
                       1.9710283295E-01 -4.1706677931E-01 -1.9710283295E-01
                       4.1706677931E-01 -1.9710283295E-01 -1.9710283295E-01
                      -1.9710283295E-01  1.9710283295E-01 -4.1706677931E-01
                      -1.9710283295E-01  4.1706677931E-01 -1.9710283295E-01
                      -4.1706677931E-01  1.9710283295E-01 -1.9710283295E-01
                      -1.9710283295E-01 -1.9710283295E-01  4.1706677931E-01
                      -1.9710283295E-01 -4.1706677931E-01  1.9710283295E-01
                      -4.1706677931E-01 -1.9710283295E-01  1.9710283295E-01
                       4.1706677931E-01  1.9710283295E-01  1.9710283295E-01
                       1.9710283295E-01  4.1706677931E-01  1.9710283295E-01
                       1.9710283295E-01  1.9710283295E-01  4.1706677931E-01
             xred21    0.0000000000E+00  0.0000000000E+00  0.0000000000E+00
                       1.1845037906E-01 -1.1845037906E-01 -1.1845037906E-01
                      -1.1845037906E-01  1.1845037906E-01 -1.1845037906E-01
                      -1.1845037906E-01 -1.1845037906E-01  1.1845037906E-01
                       1.1845037906E-01  1.1845037906E-01  1.1845037906E-01
                       5.8521637096E-02 -5.8521637096E-02 -5.8521637096E-02
                      -5.8521637096E-02  5.8521637096E-02 -5.8521637096E-02
                      -5.8521637096E-02 -5.8521637096E-02  5.8521637096E-02
                       5.8521637096E-02  5.8521637096E-02  5.8521637096E-02
                       9.8551416473E-02 -9.8551416473E-02 -2.0853338966E-01
                       9.8551416473E-02 -2.0853338966E-01 -9.8551416473E-02
                       2.0853338966E-01 -9.8551416473E-02 -9.8551416473E-02
                      -9.8551416473E-02  9.8551416473E-02 -2.0853338966E-01
                      -9.8551416473E-02  2.0853338966E-01 -9.8551416473E-02
                      -2.0853338966E-01  9.8551416473E-02 -9.8551416473E-02
                      -9.8551416473E-02 -9.8551416473E-02  2.0853338966E-01
                      -9.8551416473E-02 -2.0853338966E-01  9.8551416473E-02
                      -2.0853338966E-01 -9.8551416473E-02  9.8551416473E-02
                       2.0853338966E-01  9.8551416473E-02  9.8551416473E-02
                       9.8551416473E-02  2.0853338966E-01  9.8551416473E-02
                       9.8551416473E-02  9.8551416473E-02  2.0853338966E-01
             xred22    0.0000000000E+00  0.0000000000E+00  0.0000000000E+00
                       1.1845037906E-01 -1.1845037906E-01 -1.1845037906E-01
                      -1.1845037906E-01  1.1845037906E-01 -1.1845037906E-01
                      -1.1845037906E-01 -1.1845037906E-01  1.1845037906E-01
                       1.1845037906E-01  1.1845037906E-01  1.1845037906E-01
                       5.8521637096E-02 -5.8521637096E-02 -5.8521637096E-02
                      -5.8521637096E-02  5.8521637096E-02 -5.8521637096E-02
                      -5.8521637096E-02 -5.8521637096E-02  5.8521637096E-02
                       5.8521637096E-02  5.8521637096E-02  5.8521637096E-02
                       9.8551416473E-02 -9.8551416473E-02 -2.0853338966E-01
                       9.8551416473E-02 -2.0853338966E-01 -9.8551416473E-02
                       2.0853338966E-01 -9.8551416473E-02 -9.8551416473E-02
                      -9.8551416473E-02  9.8551416473E-02 -2.0853338966E-01
                      -9.8551416473E-02  2.0853338966E-01 -9.8551416473E-02
                      -2.0853338966E-01  9.8551416473E-02 -9.8551416473E-02
                      -9.8551416473E-02 -9.8551416473E-02  2.0853338966E-01
                      -9.8551416473E-02 -2.0853338966E-01  9.8551416473E-02
                      -2.0853338966E-01 -9.8551416473E-02  9.8551416473E-02
                       2.0853338966E-01  9.8551416473E-02  9.8551416473E-02
                       9.8551416473E-02  2.0853338966E-01  9.8551416473E-02
                       9.8551416473E-02  9.8551416473E-02  2.0853338966E-01
             xred23    0.0000000000E+00  0.0000000000E+00  0.0000000000E+00
                       1.1845037906E-01 -1.1845037906E-01 -1.1845037906E-01
                      -1.1845037906E-01  1.1845037906E-01 -1.1845037906E-01
                      -1.1845037906E-01 -1.1845037906E-01  1.1845037906E-01
                       1.1845037906E-01  1.1845037906E-01  1.1845037906E-01
                       5.8521637096E-02 -5.8521637096E-02 -5.8521637096E-02
                      -5.8521637096E-02  5.8521637096E-02 -5.8521637096E-02
                      -5.8521637096E-02 -5.8521637096E-02  5.8521637096E-02
                       5.8521637096E-02  5.8521637096E-02  5.8521637096E-02
                       9.8551416473E-02 -9.8551416473E-02 -2.0853338966E-01
                       9.8551416473E-02 -2.0853338966E-01 -9.8551416473E-02
                       2.0853338966E-01 -9.8551416473E-02 -9.8551416473E-02
                      -9.8551416473E-02  9.8551416473E-02 -2.0853338966E-01
                      -9.8551416473E-02  2.0853338966E-01 -9.8551416473E-02
                      -2.0853338966E-01  9.8551416473E-02 -9.8551416473E-02
                      -9.8551416473E-02 -9.8551416473E-02  2.0853338966E-01
                      -9.8551416473E-02 -2.0853338966E-01  9.8551416473E-02
                      -2.0853338966E-01 -9.8551416473E-02  9.8551416473E-02
                       2.0853338966E-01  9.8551416473E-02  9.8551416473E-02
                       9.8551416473E-02  2.0853338966E-01  9.8551416473E-02
                       9.8551416473E-02  9.8551416473E-02  2.0853338966E-01
             xred24    0.0000000000E+00  0.0000000000E+00  0.0000000000E+00
                       1.1845037906E-01 -1.1845037906E-01 -1.1845037906E-01
                      -1.1845037906E-01  1.1845037906E-01 -1.1845037906E-01
                      -1.1845037906E-01 -1.1845037906E-01  1.1845037906E-01
                       1.1845037906E-01  1.1845037906E-01  1.1845037906E-01
                       5.8521637096E-02 -5.8521637096E-02 -5.8521637096E-02
                      -5.8521637096E-02  5.8521637096E-02 -5.8521637096E-02
                      -5.8521637096E-02 -5.8521637096E-02  5.8521637096E-02
                       5.8521637096E-02  5.8521637096E-02  5.8521637096E-02
                       9.8551416473E-02 -9.8551416473E-02 -2.0853338966E-01
                       9.8551416473E-02 -2.0853338966E-01 -9.8551416473E-02
                       2.0853338966E-01 -9.8551416473E-02 -9.8551416473E-02
                      -9.8551416473E-02  9.8551416473E-02 -2.0853338966E-01
                      -9.8551416473E-02  2.0853338966E-01 -9.8551416473E-02
                      -2.0853338966E-01  9.8551416473E-02 -9.8551416473E-02
                      -9.8551416473E-02 -9.8551416473E-02  2.0853338966E-01
                      -9.8551416473E-02 -2.0853338966E-01  9.8551416473E-02
                      -2.0853338966E-01 -9.8551416473E-02  9.8551416473E-02
                       2.0853338966E-01  9.8551416473E-02  9.8551416473E-02
                       9.8551416473E-02  2.0853338966E-01  9.8551416473E-02
                       9.8551416473E-02  9.8551416473E-02  2.0853338966E-01
             xred25    0.0000000000E+00  0.0000000000E+00  0.0000000000E+00
                       1.1845037906E-01 -1.1845037906E-01 -1.1845037906E-01
                      -1.1845037906E-01  1.1845037906E-01 -1.1845037906E-01
                      -1.1845037906E-01 -1.1845037906E-01  1.1845037906E-01
                       1.1845037906E-01  1.1845037906E-01  1.1845037906E-01
                       5.8521637096E-02 -5.8521637096E-02 -5.8521637096E-02
                      -5.8521637096E-02  5.8521637096E-02 -5.8521637096E-02
                      -5.8521637096E-02 -5.8521637096E-02  5.8521637096E-02
                       5.8521637096E-02  5.8521637096E-02  5.8521637096E-02
                       9.8551416473E-02 -9.8551416473E-02 -2.0853338966E-01
                       9.8551416473E-02 -2.0853338966E-01 -9.8551416473E-02
                       2.0853338966E-01 -9.8551416473E-02 -9.8551416473E-02
                      -9.8551416473E-02  9.8551416473E-02 -2.0853338966E-01
                      -9.8551416473E-02  2.0853338966E-01 -9.8551416473E-02
                      -2.0853338966E-01  9.8551416473E-02 -9.8551416473E-02
                      -9.8551416473E-02 -9.8551416473E-02  2.0853338966E-01
                      -9.8551416473E-02 -2.0853338966E-01  9.8551416473E-02
                      -2.0853338966E-01 -9.8551416473E-02  9.8551416473E-02
                       2.0853338966E-01  9.8551416473E-02  9.8551416473E-02
                       9.8551416473E-02  2.0853338966E-01  9.8551416473E-02
                       9.8551416473E-02  9.8551416473E-02  2.0853338966E-01
            znucl        1.00000    8.00000   14.00000

================================================================================

 chkinp: Checking input parameters for consistency, jdtset=  11.

 chkinp: Checking input parameters for consistency, jdtset=  12.

 chkinp: Checking input parameters for consistency, jdtset=  13.

 chkinp: Checking input parameters for consistency, jdtset=  14.

 chkinp: Checking input parameters for consistency, jdtset=  15.

 chkinp: Checking input parameters for consistency, jdtset=  21.

 chkinp: Checking input parameters for consistency, jdtset=  22.

 chkinp: Checking input parameters for consistency, jdtset=  23.

 chkinp: Checking input parameters for consistency, jdtset=  24.

 chkinp: Checking input parameters for consistency, jdtset=  25.

--- !COMMENT
src_file: m_chkinp.F90
src_line: 3919
message: |
    dipdip can be set to 0 in case of metals whereas dipdip 1 should be used in polar materials.
...

 DATA TYPE INFORMATION: 
 REAL:      Data type name: REAL(DP) 
            Kind value:      8
            Precision:      15
            Smallest nonnegligible quantity relative to 1: 0.22204460E-015
            Smallest positive number:                      0.22250739E-307
            Largest representable number:                  0.17976931E+309
 INTEGER:   Data type name: INTEGER(default) 
            Kind value: 4
            Bit size:   32
            Largest representable number: 2147483647
 LOGICAL:   Data type name: LOGICAL 
            Kind value: 4
 CHARACTER: Data type name: CHARACTER             Kind value: 1

  ==== OpenMP parallelism is ON ====
- Max_threads:       8
- Num_threads:       8
- Num_procs:         8
- Dynamic:           F
- Nested:            F
 
  ==== Using MPI-2 specifications ==== 
  MPI-IO support is ON
  xmpi_tag_ub ................   2147483647
  xmpi_bsize_ch ..............            1
  xmpi_bsize_int .............            4
  xmpi_bsize_sp ..............            4
  xmpi_bsize_dp ..............            8
  xmpi_bsize_spc .............            8
  xmpi_bsize_dpc .............           16
  xmpio_bsize_frm ............            4
  xmpi_address_kind ..........            8
  xmpi_offset_kind ...........            8
  MPI_WTICK ..................    9.9999999999999995E-007

================================================================================
== DATASET 11 ==================================================================
-   mpi_nproc: 1, omp_nthreads: 8 (-1 if OMP is not activated)


--- !COMMENT
src_file: m_xgScalapack.F90
src_line: 236
message: |
    xgScalapack in auto mode
...


 getdim_nloc : deduce lmnmax  =  18, lnmax  =   6,
                      lmnmaxso=  18, lnmaxso=   6.
 Slater exchange
 P. A. M. Dirac, Math. Proc. Cambridge Philos. Soc. 26, 376 (1930)
 F. Bloch, Z. Phys. 57, 545 (1929)
 Perdew & Wang
 J. P. Perdew and Y. Wang, Phys. Rev. B 45, 13244 (1992)

 Unit cell volume ucvol=  3.3750000E+03 bohr^3
 Angles (23,13,12)=  9.00000000E+01  9.00000000E+01  9.00000000E+01 degrees

 getcut: wavevector=  0.0000  0.0000  0.0000  ngfft=  32  32  32
         ecut(hartree)=      5.000   => boxcut(ratio)=   2.11938
- pspini: atom type   1  psp file is /Users/ali/Desktop/JDFTX/build-withlibxc/pseudopotentials/H.psp8
- pspatm: opening atomic psp file    /Users/ali/Desktop/JDFTX/build-withlibxc/pseudopotentials/H.psp8
- H     ONCVPSP-3.3.0  r_core=   1.00957   0.90680
-  1.00000   1.00000    171101                znucl, zion, pspdat
    8   -1012    1    4       300   0.00000   pspcod,pspxc,lmax,lloc,mmax,r2well
    2.99000000000000    0.00000000000000    0.00000000000000   rchrg,fchrg,qchrg
     nproj     2     1
     extension_switch     1
  valence charge integrates to:   0.89642925612054136     
  pspatm : epsatm=    0.35491505
         --- l  ekb(1:nproj) -->
             0   -1.665338   -0.519510
             1   -0.275071
 pspatm: atomic psp has been read  and splines computed

- pspini: atom type   2  psp file is /Users/ali/Desktop/JDFTX/build-withlibxc/pseudopotentials/O.psp8
- pspatm: opening atomic psp file    /Users/ali/Desktop/JDFTX/build-withlibxc/pseudopotentials/O.psp8
- O     ONCVPSP-3.3.0  r_core=   1.35509   1.45563   1.35509
-  8.00000   6.00000    171101                znucl, zion, pspdat
    8   -1012    2    4       600   0.00000   pspcod,pspxc,lmax,lloc,mmax,r2well
    5.99000000000000    4.00000000000000    0.00000000000000   rchrg,fchrg,qchrg
     nproj     2     2     1
     extension_switch     1
  valence charge integrates to:    5.9991245059025342     
  pspatm : epsatm=    6.27558977
         --- l  ekb(1:nproj) -->
             0    6.026028    0.816167
             1   -4.798959   -1.172522
             2   -1.033686
 pspatm: atomic psp has been read  and splines computed

- pspini: atom type   3  psp file is /Users/ali/Desktop/JDFTX/build-withlibxc/pseudopotentials/Si.psp8
- pspatm: opening atomic psp file    /Users/ali/Desktop/JDFTX/build-withlibxc/pseudopotentials/Si.psp8
- Si    ONCVPSP-3.3.0  r_core=   1.60303   1.72197   1.91712
- 14.00000   4.00000    171102                znucl, zion, pspdat
    8   -1012    2    4       600   0.00000   pspcod,pspxc,lmax,lloc,mmax,r2well
    5.99000000000000    4.00000000000000    0.00000000000000   rchrg,fchrg,qchrg
     nproj     2     2     2
     extension_switch     1
  valence charge integrates to:    3.9545012856495880     
  pspatm : epsatm=    6.67004110
         --- l  ekb(1:nproj) -->
             0    5.565958    0.856966
             1    2.726111    0.629828
             2   -2.124804   -0.444604
 pspatm: atomic psp has been read  and splines computed

   3.51184653E+03                                ecore*ucvol(ha*bohr**3)
 ==== Info on pseudopotentials ====
  Norm-conserving pseudopotentials
  Number of pseudopotentials ..    3
  Number of types of atoms   ..    3
  Scalar calculation (no spin-orbit term)
  Nonlocal part applied using Legendre polynomials
  Max number of non-local projectors over l and type   2
  Highest angular momentum +1 .......   3
  Max number of (l,n)   components ..   6
  Max number of (l,m,n) components ..   6

 Pseudo-Core Charge Info: 
   Number of radial points for pseudo-core charge .. 2501
   XC core-correction treatment (optnlxccc) ........    1
   Radius for pseudo-core charge for each type ..... 

  - Atom type    1 has pseudo-core radius ..  0.0000
  - Atom type    2 has pseudo-core radius ..  5.9900
  - Atom type    3 has pseudo-core radius ..  5.9900

 Info on the Q-grid used for form factors in spline form: 
   Number of q-points for radial functions ffspl ..   3001
   Number of q-points for vlspl ...................   3001
   vloc is computed in Reciprocal Space
   model core charge treated in real-space

  XC functional for type 1 is -1012
  Pseudo valence available: yes
  XC functional for type 2 is -1012
  Pseudo valence available: yes
  XC functional for type 3 is -1012
  Pseudo valence available: yes

 newkpt: spin channel isppol2 =     1
 wfconv:   100 bands initialized randomly with npw=  1791, for ikpt=     1
 newkpt: spin channel isppol2 =     2
 wfconv:   100 bands initialized randomly with npw=  1791, for ikpt=     1
_setup2: Arith. and geom. avg. npw (full set) are    1791.000    1791.000
 initro: for itypat=  1, take pseudo charge density from pp file
 initro: for itypat=  2, take pseudo charge density from pp file
 initro: for itypat=  3, take pseudo charge density from pp file

================================================================================

 getcut: wavevector=  0.0000  0.0000  0.0000  ngfft=  32  32  32
         ecut(hartree)=      5.000   => boxcut(ratio)=   2.11938

 1/G**2 cut-off applied in the following step : cutoff-mode = CRYSTAL

 1/G**2 cut-off applied in the following step : cutoff-mode = CRYSTAL

 1/G**2 cut-off applied in the following step : cutoff-mode = CRYSTAL

 1/G**2 cut-off applied in the following step : cutoff-mode = CRYSTAL

--- !WARNING
src_file: m_drivexc.F90
src_line: 707
message: |
    Density went too small (lower than xc_denpos) at 6834 points
    and was set to xc_denpos =   1.00E-14. Lowest was  -0.18E-02.
    Likely due to too low boxcut or too low ecut for pseudopotential core charge.
...


 ITER STEP NUMBER     1
 vtorho: nnsclo_now = 2, note that nnsclo, dbl_nnsclo, istep= 0 0 1
 newocc: new Fermi energy is      -0.035577 (Ha),     -0.968086 (eV)
         with nelect:      55.000000, after number of bisections: 38
 mkrho: echo density (plane-wave part only)
 Total charge density [el/Bohr^3]
      Maximum=    3.6669E-01  at reduced coord.    0.0938    0.9063    0.9063
      Minimum=    1.2847E-05  at reduced coord.    0.5313    0.4688    0.4688
   Integrated=    5.5000E+01
 Spin up density      [el/Bohr^3]
      Maximum=    1.8347E-01  at reduced coord.    0.0938    0.9063    0.9063
      Minimum=    6.5003E-06  at reduced coord.    0.5313    0.4688    0.4688
   Integrated=    2.8000E+01
 Spin down density    [el/Bohr^3]
      Maximum=    1.8321E-01  at reduced coord.    0.0938    0.9063    0.9063
      Minimum=    6.3468E-06  at reduced coord.    0.5313    0.4688    0.4688
   Integrated=    2.7000E+01
 Magnetization (spin up - spin down) [el/Bohr^3]
      Maximum=    9.8055E-03  at reduced coord.    0.1563    0.8750    0.9375
      Minimum=   -3.3767E-04  at reduced coord.    0.3125    0.3125    0.1875
   Integrated=    1.0000E+00
 Relative magnetization (=zeta, between -1 and 1)
      Maximum=    6.3904E-02  at reduced coord.    0.7500    0.7500    0.9688
      Minimum=   -2.7836E-02  at reduced coord.    0.5000    0.5000    0.0000
 Total charge density [el/Bohr^3]
      Maximum=    3.6669E-01  at reduced coord.    0.0938    0.9063    0.9063
      Minimum=    1.2847E-05  at reduced coord.    0.5313    0.4688    0.4688
   Integrated=    5.5000E+01
 Spin up density      [el/Bohr^3]
      Maximum=    1.8347E-01  at reduced coord.    0.0938    0.9063    0.9063
      Minimum=    6.5003E-06  at reduced coord.    0.5313    0.4688    0.4688
   Integrated=    2.8000E+01
 Spin down density    [el/Bohr^3]
      Maximum=    1.8321E-01  at reduced coord.    0.0938    0.9063    0.9063
      Minimum=    6.3468E-06  at reduced coord.    0.5313    0.4688    0.4688
   Integrated=    2.7000E+01
 Magnetization (spin up - spin down) [el/Bohr^3]
      Maximum=    9.8055E-03  at reduced coord.    0.1563    0.8750    0.9375
      Minimum=   -3.3767E-04  at reduced coord.    0.3125    0.3125    0.1875
   Integrated=    1.0000E+00
 Relative magnetization (=zeta, between -1 and 1)
      Maximum=    6.3904E-02  at reduced coord.    0.7500    0.7500    0.9688
      Minimum=   -2.7836E-02  at reduced coord.    0.5000    0.5000    0.0000
 ETOT  1  -84.857900542076    -8.49E+01 1.14E-02 1.76E+03 5.3E-01 5.33E-01 1.000
 scprqt: <Vxc>= -2.0566719E-01 hartree

 Simple mixing update:
  residual square of the potential:    450.54713763559414
 scfcv_core: previous iteration took  5.61 [s]

 ITER STEP NUMBER     2
 vtorho: nnsclo_now = 2, note that nnsclo, dbl_nnsclo, istep= 0 0 2
 newocc: new Fermi energy is      -0.169718 (Ha),     -4.618261 (eV)
         with nelect:      55.000000, after number of bisections: 49
 mkrho: echo density (plane-wave part only)
 Total charge density [el/Bohr^3]
      Maximum=    4.6877E-01  at reduced coord.    0.0938    0.9063    0.9063
      Minimum=    1.4568E-05  at reduced coord.    0.5000    0.5000    0.5000
   Integrated=    5.5000E+01
 Spin up density      [el/Bohr^3]
      Maximum=    2.3436E-01  at reduced coord.    0.0938    0.9063    0.9063
      Minimum=    7.2499E-06  at reduced coord.    0.5000    0.5000    0.5000
   Integrated=    2.8000E+01
 Spin down density    [el/Bohr^3]
      Maximum=    2.3441E-01  at reduced coord.    0.0938    0.9063    0.9063
      Minimum=    7.3178E-06  at reduced coord.    0.5000    0.5000    0.5000
   Integrated=    2.7000E+01
 Magnetization (spin up - spin down) [el/Bohr^3]
      Maximum=    7.2252E-03  at reduced coord.    0.4063    0.8125    0.8125
      Minimum=   -3.0942E-04  at reduced coord.    0.0938    0.0000    0.0000
   Integrated=    1.0000E+00
 Relative magnetization (=zeta, between -1 and 1)
      Maximum=    6.0162E-02  at reduced coord.    0.0000    0.5000    0.7188
      Minimum=   -2.9053E-02  at reduced coord.    0.8125    0.1875    0.1875
 Total charge density [el/Bohr^3]
      Maximum=    4.6877E-01  at reduced coord.    0.0938    0.9063    0.9063
      Minimum=    1.4568E-05  at reduced coord.    0.5000    0.5000    0.5000
   Integrated=    5.5000E+01
 Spin up density      [el/Bohr^3]
      Maximum=    2.3436E-01  at reduced coord.    0.0938    0.9063    0.9063
      Minimum=    7.2499E-06  at reduced coord.    0.5000    0.5000    0.5000
   Integrated=    2.8000E+01
 Spin down density    [el/Bohr^3]
      Maximum=    2.3441E-01  at reduced coord.    0.0938    0.9063    0.9063
      Minimum=    7.3178E-06  at reduced coord.    0.5000    0.5000    0.5000
   Integrated=    2.7000E+01
 Magnetization (spin up - spin down) [el/Bohr^3]
      Maximum=    7.2252E-03  at reduced coord.    0.4063    0.8125    0.8125
      Minimum=   -3.0942E-04  at reduced coord.    0.0938    0.0000    0.0000
   Integrated=    1.0000E+00
 Relative magnetization (=zeta, between -1 and 1)
      Maximum=    6.0162E-02  at reduced coord.    0.0000    0.5000    0.7188
      Minimum=   -2.9053E-02  at reduced coord.    0.8125    0.1875    0.1875
 ETOT  2  -86.164247571265    -1.31E+00 1.62E-03 3.32E+02 3.1E-01 3.06E-01 1.000
 scprqt: <Vxc>= -1.9855356E-01 hartree

 Pulay update with  1 previous iterations:
 mixing of old trial potential: alpha(m:m-4)=  0.755      0.245
 scfcv_core: previous iteration took  5.13 [s]

 ITER STEP NUMBER     3
 vtorho: nnsclo_now = 1, note that nnsclo, dbl_nnsclo, istep= 0 0 3
 newocc: new Fermi energy is      -0.136525 (Ha),     -3.715034 (eV)
         with nelect:      55.000000, after number of bisections: 50
 mkrho: echo density (plane-wave part only)
 Total charge density [el/Bohr^3]
      Maximum=    4.4294E-01  at reduced coord.    0.0938    0.9063    0.9063
      Minimum=    1.3668E-05  at reduced coord.    0.5313    0.4688    0.4688
   Integrated=    5.5000E+01
 Spin up density      [el/Bohr^3]
      Maximum=    2.2149E-01  at reduced coord.    0.0938    0.9063    0.9063
      Minimum=    6.8044E-06  at reduced coord.    0.5313    0.4688    0.4688
   Integrated=    2.8000E+01
 Spin down density    [el/Bohr^3]
      Maximum=    2.2145E-01  at reduced coord.    0.0938    0.9063    0.9063
      Minimum=    6.8631E-06  at reduced coord.    0.5313    0.4688    0.4688
   Integrated=    2.7000E+01
 Magnetization (spin up - spin down) [el/Bohr^3]
      Maximum=    1.0520E-02  at reduced coord.    0.1563    0.8750    0.9375
      Minimum=   -2.6464E-04  at reduced coord.    0.9375    0.0625    0.0625
   Integrated=    1.0000E+00
 Relative magnetization (=zeta, between -1 and 1)
      Maximum=    4.4057E-02  at reduced coord.    0.1875    0.8438    0.9688
      Minimum=   -2.2713E-02  at reduced coord.    0.5000    0.5000    0.0000
 Total charge density [el/Bohr^3]
      Maximum=    4.4294E-01  at reduced coord.    0.0938    0.9063    0.9063
      Minimum=    1.3668E-05  at reduced coord.    0.5313    0.4688    0.4688
   Integrated=    5.5000E+01
[...]
             xred12    0.0000000000E+00  0.0000000000E+00  0.0000000000E+00
                       2.3690075811E-01 -2.3690075811E-01 -2.3690075811E-01
                      -2.3690075811E-01  2.3690075811E-01 -2.3690075811E-01
                      -2.3690075811E-01 -2.3690075811E-01  2.3690075811E-01
                       2.3690075811E-01  2.3690075811E-01  2.3690075811E-01
                       1.1704327419E-01 -1.1704327419E-01 -1.1704327419E-01
                      -1.1704327419E-01  1.1704327419E-01 -1.1704327419E-01
                      -1.1704327419E-01 -1.1704327419E-01  1.1704327419E-01
                       1.1704327419E-01  1.1704327419E-01  1.1704327419E-01
                       1.9710283295E-01 -1.9710283295E-01 -4.1706677931E-01
                       1.9710283295E-01 -4.1706677931E-01 -1.9710283295E-01
                       4.1706677931E-01 -1.9710283295E-01 -1.9710283295E-01
                      -1.9710283295E-01  1.9710283295E-01 -4.1706677931E-01
                      -1.9710283295E-01  4.1706677931E-01 -1.9710283295E-01
                      -4.1706677931E-01  1.9710283295E-01 -1.9710283295E-01
                      -1.9710283295E-01 -1.9710283295E-01  4.1706677931E-01
                      -1.9710283295E-01 -4.1706677931E-01  1.9710283295E-01
                      -4.1706677931E-01 -1.9710283295E-01  1.9710283295E-01
                       4.1706677931E-01  1.9710283295E-01  1.9710283295E-01
                       1.9710283295E-01  4.1706677931E-01  1.9710283295E-01
                       1.9710283295E-01  1.9710283295E-01  4.1706677931E-01
             xred13    0.0000000000E+00  0.0000000000E+00  0.0000000000E+00
                       2.3690075811E-01 -2.3690075811E-01 -2.3690075811E-01
                      -2.3690075811E-01  2.3690075811E-01 -2.3690075811E-01
                      -2.3690075811E-01 -2.3690075811E-01  2.3690075811E-01
                       2.3690075811E-01  2.3690075811E-01  2.3690075811E-01
                       1.1704327419E-01 -1.1704327419E-01 -1.1704327419E-01
                      -1.1704327419E-01  1.1704327419E-01 -1.1704327419E-01
                      -1.1704327419E-01 -1.1704327419E-01  1.1704327419E-01
                       1.1704327419E-01  1.1704327419E-01  1.1704327419E-01
                       1.9710283295E-01 -1.9710283295E-01 -4.1706677931E-01
                       1.9710283295E-01 -4.1706677931E-01 -1.9710283295E-01
                       4.1706677931E-01 -1.9710283295E-01 -1.9710283295E-01
                      -1.9710283295E-01  1.9710283295E-01 -4.1706677931E-01
                      -1.9710283295E-01  4.1706677931E-01 -1.9710283295E-01
                      -4.1706677931E-01  1.9710283295E-01 -1.9710283295E-01
                      -1.9710283295E-01 -1.9710283295E-01  4.1706677931E-01
                      -1.9710283295E-01 -4.1706677931E-01  1.9710283295E-01
                      -4.1706677931E-01 -1.9710283295E-01  1.9710283295E-01
                       4.1706677931E-01  1.9710283295E-01  1.9710283295E-01
                       1.9710283295E-01  4.1706677931E-01  1.9710283295E-01
                       1.9710283295E-01  1.9710283295E-01  4.1706677931E-01
             xred14    0.0000000000E+00  0.0000000000E+00  0.0000000000E+00
                       2.3690075811E-01 -2.3690075811E-01 -2.3690075811E-01
                      -2.3690075811E-01  2.3690075811E-01 -2.3690075811E-01
                      -2.3690075811E-01 -2.3690075811E-01  2.3690075811E-01
                       2.3690075811E-01  2.3690075811E-01  2.3690075811E-01
                       1.1704327419E-01 -1.1704327419E-01 -1.1704327419E-01
                      -1.1704327419E-01  1.1704327419E-01 -1.1704327419E-01
                      -1.1704327419E-01 -1.1704327419E-01  1.1704327419E-01
                       1.1704327419E-01  1.1704327419E-01  1.1704327419E-01
                       1.9710283295E-01 -1.9710283295E-01 -4.1706677931E-01
                       1.9710283295E-01 -4.1706677931E-01 -1.9710283295E-01
                       4.1706677931E-01 -1.9710283295E-01 -1.9710283295E-01
                      -1.9710283295E-01  1.9710283295E-01 -4.1706677931E-01
                      -1.9710283295E-01  4.1706677931E-01 -1.9710283295E-01
                      -4.1706677931E-01  1.9710283295E-01 -1.9710283295E-01
                      -1.9710283295E-01 -1.9710283295E-01  4.1706677931E-01
                      -1.9710283295E-01 -4.1706677931E-01  1.9710283295E-01
                      -4.1706677931E-01 -1.9710283295E-01  1.9710283295E-01
                       4.1706677931E-01  1.9710283295E-01  1.9710283295E-01
                       1.9710283295E-01  4.1706677931E-01  1.9710283295E-01
                       1.9710283295E-01  1.9710283295E-01  4.1706677931E-01
             xred15    0.0000000000E+00  0.0000000000E+00  0.0000000000E+00
                       2.3690075811E-01 -2.3690075811E-01 -2.3690075811E-01
                      -2.3690075811E-01  2.3690075811E-01 -2.3690075811E-01
                      -2.3690075811E-01 -2.3690075811E-01  2.3690075811E-01
                       2.3690075811E-01  2.3690075811E-01  2.3690075811E-01
                       1.1704327419E-01 -1.1704327419E-01 -1.1704327419E-01
                      -1.1704327419E-01  1.1704327419E-01 -1.1704327419E-01
                      -1.1704327419E-01 -1.1704327419E-01  1.1704327419E-01
                       1.1704327419E-01  1.1704327419E-01  1.1704327419E-01
                       1.9710283295E-01 -1.9710283295E-01 -4.1706677931E-01
                       1.9710283295E-01 -4.1706677931E-01 -1.9710283295E-01
                       4.1706677931E-01 -1.9710283295E-01 -1.9710283295E-01
                      -1.9710283295E-01  1.9710283295E-01 -4.1706677931E-01
                      -1.9710283295E-01  4.1706677931E-01 -1.9710283295E-01
                      -4.1706677931E-01  1.9710283295E-01 -1.9710283295E-01
                      -1.9710283295E-01 -1.9710283295E-01  4.1706677931E-01
                      -1.9710283295E-01 -4.1706677931E-01  1.9710283295E-01
                      -4.1706677931E-01 -1.9710283295E-01  1.9710283295E-01
                       4.1706677931E-01  1.9710283295E-01  1.9710283295E-01
                       1.9710283295E-01  4.1706677931E-01  1.9710283295E-01
                       1.9710283295E-01  1.9710283295E-01  4.1706677931E-01
             xred21    0.0000000000E+00  0.0000000000E+00  0.0000000000E+00
                       1.1845037906E-01 -1.1845037906E-01 -1.1845037906E-01
                      -1.1845037906E-01  1.1845037906E-01 -1.1845037906E-01
                      -1.1845037906E-01 -1.1845037906E-01  1.1845037906E-01
                       1.1845037906E-01  1.1845037906E-01  1.1845037906E-01
                       5.8521637096E-02 -5.8521637096E-02 -5.8521637096E-02
                      -5.8521637096E-02  5.8521637096E-02 -5.8521637096E-02
                      -5.8521637096E-02 -5.8521637096E-02  5.8521637096E-02
                       5.8521637096E-02  5.8521637096E-02  5.8521637096E-02
                       9.8551416473E-02 -9.8551416473E-02 -2.0853338966E-01
                       9.8551416473E-02 -2.0853338966E-01 -9.8551416473E-02
                       2.0853338966E-01 -9.8551416473E-02 -9.8551416473E-02
                      -9.8551416473E-02  9.8551416473E-02 -2.0853338966E-01
                      -9.8551416473E-02  2.0853338966E-01 -9.8551416473E-02
                      -2.0853338966E-01  9.8551416473E-02 -9.8551416473E-02
                      -9.8551416473E-02 -9.8551416473E-02  2.0853338966E-01
                      -9.8551416473E-02 -2.0853338966E-01  9.8551416473E-02
                      -2.0853338966E-01 -9.8551416473E-02  9.8551416473E-02
                       2.0853338966E-01  9.8551416473E-02  9.8551416473E-02
                       9.8551416473E-02  2.0853338966E-01  9.8551416473E-02
                       9.8551416473E-02  9.8551416473E-02  2.0853338966E-01
             xred22    0.0000000000E+00  0.0000000000E+00  0.0000000000E+00
                       1.1845037906E-01 -1.1845037906E-01 -1.1845037906E-01
                      -1.1845037906E-01  1.1845037906E-01 -1.1845037906E-01
                      -1.1845037906E-01 -1.1845037906E-01  1.1845037906E-01
                       1.1845037906E-01  1.1845037906E-01  1.1845037906E-01
                       5.8521637096E-02 -5.8521637096E-02 -5.8521637096E-02
                      -5.8521637096E-02  5.8521637096E-02 -5.8521637096E-02
                      -5.8521637096E-02 -5.8521637096E-02  5.8521637096E-02
                       5.8521637096E-02  5.8521637096E-02  5.8521637096E-02
                       9.8551416473E-02 -9.8551416473E-02 -2.0853338966E-01
                       9.8551416473E-02 -2.0853338966E-01 -9.8551416473E-02
                       2.0853338966E-01 -9.8551416473E-02 -9.8551416473E-02
                      -9.8551416473E-02  9.8551416473E-02 -2.0853338966E-01
                      -9.8551416473E-02  2.0853338966E-01 -9.8551416473E-02
                      -2.0853338966E-01  9.8551416473E-02 -9.8551416473E-02
                      -9.8551416473E-02 -9.8551416473E-02  2.0853338966E-01
                      -9.8551416473E-02 -2.0853338966E-01  9.8551416473E-02
                      -2.0853338966E-01 -9.8551416473E-02  9.8551416473E-02
                       2.0853338966E-01  9.8551416473E-02  9.8551416473E-02
                       9.8551416473E-02  2.0853338966E-01  9.8551416473E-02
                       9.8551416473E-02  9.8551416473E-02  2.0853338966E-01
             xred23    0.0000000000E+00  0.0000000000E+00  0.0000000000E+00
                       1.1845037906E-01 -1.1845037906E-01 -1.1845037906E-01
                      -1.1845037906E-01  1.1845037906E-01 -1.1845037906E-01
                      -1.1845037906E-01 -1.1845037906E-01  1.1845037906E-01
                       1.1845037906E-01  1.1845037906E-01  1.1845037906E-01
                       5.8521637096E-02 -5.8521637096E-02 -5.8521637096E-02
                      -5.8521637096E-02  5.8521637096E-02 -5.8521637096E-02
                      -5.8521637096E-02 -5.8521637096E-02  5.8521637096E-02
                       5.8521637096E-02  5.8521637096E-02  5.8521637096E-02
                       9.8551416473E-02 -9.8551416473E-02 -2.0853338966E-01
                       9.8551416473E-02 -2.0853338966E-01 -9.8551416473E-02
                       2.0853338966E-01 -9.8551416473E-02 -9.8551416473E-02
                      -9.8551416473E-02  9.8551416473E-02 -2.0853338966E-01
                      -9.8551416473E-02  2.0853338966E-01 -9.8551416473E-02
                      -2.0853338966E-01  9.8551416473E-02 -9.8551416473E-02
                      -9.8551416473E-02 -9.8551416473E-02  2.0853338966E-01
                      -9.8551416473E-02 -2.0853338966E-01  9.8551416473E-02
                      -2.0853338966E-01 -9.8551416473E-02  9.8551416473E-02
                       2.0853338966E-01  9.8551416473E-02  9.8551416473E-02
                       9.8551416473E-02  2.0853338966E-01  9.8551416473E-02
                       9.8551416473E-02  9.8551416473E-02  2.0853338966E-01
             xred24    0.0000000000E+00  0.0000000000E+00  0.0000000000E+00
                       1.1845037906E-01 -1.1845037906E-01 -1.1845037906E-01
                      -1.1845037906E-01  1.1845037906E-01 -1.1845037906E-01
                      -1.1845037906E-01 -1.1845037906E-01  1.1845037906E-01
                       1.1845037906E-01  1.1845037906E-01  1.1845037906E-01
                       5.8521637096E-02 -5.8521637096E-02 -5.8521637096E-02
                      -5.8521637096E-02  5.8521637096E-02 -5.8521637096E-02
                      -5.8521637096E-02 -5.8521637096E-02  5.8521637096E-02
                       5.8521637096E-02  5.8521637096E-02  5.8521637096E-02
                       9.8551416473E-02 -9.8551416473E-02 -2.0853338966E-01
                       9.8551416473E-02 -2.0853338966E-01 -9.8551416473E-02
                       2.0853338966E-01 -9.8551416473E-02 -9.8551416473E-02
                      -9.8551416473E-02  9.8551416473E-02 -2.0853338966E-01
                      -9.8551416473E-02  2.0853338966E-01 -9.8551416473E-02
                      -2.0853338966E-01  9.8551416473E-02 -9.8551416473E-02
                      -9.8551416473E-02 -9.8551416473E-02  2.0853338966E-01
                      -9.8551416473E-02 -2.0853338966E-01  9.8551416473E-02
                      -2.0853338966E-01 -9.8551416473E-02  9.8551416473E-02
                       2.0853338966E-01  9.8551416473E-02  9.8551416473E-02
                       9.8551416473E-02  2.0853338966E-01  9.8551416473E-02
                       9.8551416473E-02  9.8551416473E-02  2.0853338966E-01
             xred25    0.0000000000E+00  0.0000000000E+00  0.0000000000E+00
                       1.1845037906E-01 -1.1845037906E-01 -1.1845037906E-01
                      -1.1845037906E-01  1.1845037906E-01 -1.1845037906E-01
                      -1.1845037906E-01 -1.1845037906E-01  1.1845037906E-01
                       1.1845037906E-01  1.1845037906E-01  1.1845037906E-01
                       5.8521637096E-02 -5.8521637096E-02 -5.8521637096E-02
                      -5.8521637096E-02  5.8521637096E-02 -5.8521637096E-02
                      -5.8521637096E-02 -5.8521637096E-02  5.8521637096E-02
                       5.8521637096E-02  5.8521637096E-02  5.8521637096E-02
                       9.8551416473E-02 -9.8551416473E-02 -2.0853338966E-01
                       9.8551416473E-02 -2.0853338966E-01 -9.8551416473E-02
                       2.0853338966E-01 -9.8551416473E-02 -9.8551416473E-02
                      -9.8551416473E-02  9.8551416473E-02 -2.0853338966E-01
                      -9.8551416473E-02  2.0853338966E-01 -9.8551416473E-02
                      -2.0853338966E-01  9.8551416473E-02 -9.8551416473E-02
                      -9.8551416473E-02 -9.8551416473E-02  2.0853338966E-01
                      -9.8551416473E-02 -2.0853338966E-01  9.8551416473E-02
                      -2.0853338966E-01 -9.8551416473E-02  9.8551416473E-02
                       2.0853338966E-01  9.8551416473E-02  9.8551416473E-02
                       9.8551416473E-02  2.0853338966E-01  9.8551416473E-02
                       9.8551416473E-02  9.8551416473E-02  2.0853338966E-01
            znucl        1.00000    8.00000   14.00000

================================================================================
  

================================================================================

 Suggested references for the acknowledgment of ABINIT usage.

 The users of ABINIT have little formal obligations with respect to the ABINIT group
 (those specified in the GNU General Public License, http://www.gnu.org/copyleft/gpl.txt).
 However, it is common practice in the scientific literature,
 to acknowledge the efforts of people that have made the research possible.
 In this spirit, please find below suggested citations of work written by ABINIT developers,
 corresponding to implementations inside of ABINIT that you have used in the present run.
 Note also that it will be of great value to readers of publications presenting these results,
 to read papers enabling them to understand the theoretical formalism and details
 of the ABINIT implementation.
 For information on why they are suggested, see also https://docs.abinit.org/theory/acknowledgments.
-
- [1] Libxc: A library of exchange and correlation functionals for density functional theory.
- M.A.L. Marques, M.J.T. Oliveira, T. Burnus, Computer Physics Communications 183, 2227 (2012).
- Comment: to be cited when LibXC is used (negative value of ixc)
- Strong suggestion to cite this paper.
- DOI and bibtex: see https://docs.abinit.org/theory/bibliography/#marques2012
-
- [2] The Abinit project: Impact, environment and recent developments.
- Computer Phys. Comm. 248, 107042 (2020).
- X.Gonze, B. Amadon, G. Antonius, F.Arnardi, L.Baguet, J.-M.Beuken,
- J.Bieder, F.Bottin, J.Bouchet, E.Bousquet, N.Brouwer, F.Bruneval,
- G.Brunin, T.Cavignac, J.-B. Charraud, Wei Chen, M.Cote, S.Cottenier,
- J.Denier, G.Geneste, Ph.Ghosez, M.Giantomassi, Y.Gillet, O.Gingras,
- D.R.Hamann, G.Hautier, Xu He, N.Helbig, N.Holzwarth, Y.Jia, F.Jollet,
- W.Lafargue-Dit-Hauret, K.Lejaeghere, M.A.L.Marques, A.Martin, C.Martins,
- H.P.C. Miranda, F.Naccarato, K. Persson, G.Petretto, V.Planes, Y.Pouillon,
- S.Prokhorenko, F.Ricci, G.-M.Rignanese, A.H.Romero, M.M.Schmitt, M.Torrent,
- M.J.van Setten, B.Van Troeye, M.J.Verstraete, G.Zerah and J.W.Zwanzig
- Comment: the fifth generic paper describing the ABINIT project.
- Note that a version of this paper, that is not formatted for Computer Phys. Comm. 
- is available at https://www.abinit.org/sites/default/files/ABINIT20.pdf .
- The licence allows the authors to put it on the Web.
- DOI and bibtex: see https://docs.abinit.org/theory/bibliography/#gonze2020
-
- [3] Optimized norm-conserving Vanderbilt pseudopotentials.
- D.R. Hamann, Phys. Rev. B 88, 085117 (2013).
- Comment: Some pseudopotential generated using the ONCVPSP code were used.
- DOI and bibtex: see https://docs.abinit.org/theory/bibliography/#hamann2013
-
- [4] ABINIT: Overview, and focus on selected capabilities
- J. Chem. Phys. 152, 124102 (2020).
- A. Romero, D.C. Allan, B. Amadon, G. Antonius, T. Applencourt, L.Baguet,
- J.Bieder, F.Bottin, J.Bouchet, E.Bousquet, F.Bruneval,
- G.Brunin, D.Caliste, M.Cote,
- J.Denier, C. Dreyer, Ph.Ghosez, M.Giantomassi, Y.Gillet, O.Gingras,
- D.R.Hamann, G.Hautier, F.Jollet, G. Jomard,
- A.Martin, 
- H.P.C. Miranda, F.Naccarato, G.Petretto, N.A. Pike, V.Planes,
- S.Prokhorenko, T. Rangel, F.Ricci, G.-M.Rignanese, M.Royo, M.Stengel, M.Torrent,
- M.J.van Setten, B.Van Troeye, M.J.Verstraete, J.Wiktor, J.W.Zwanziger, and X.Gonze.
- Comment: a global overview of ABINIT, with focus on selected capabilities .
- Note that a version of this paper, that is not formatted for J. Chem. Phys 
- is available at https://www.abinit.org/sites/default/files/ABINIT20_JPC.pdf .
- The licence allows the authors to put it on the Web.
- DOI and bibtex: see https://docs.abinit.org/theory/bibliography/#romero2020
-
- [5] Recent developments in the ABINIT software package.
- Computer Phys. Comm. 205, 106 (2016).
- X.Gonze, F.Jollet, F.Abreu Araujo, D.Adams, B.Amadon, T.Applencourt,
- C.Audouze, J.-M.Beuken, J.Bieder, A.Bokhanchuk, E.Bousquet, F.Bruneval
- D.Caliste, M.Cote, F.Dahm, F.Da Pieve, M.Delaveau, M.Di Gennaro,
- B.Dorado, C.Espejo, G.Geneste, L.Genovese, A.Gerossier, M.Giantomassi,
- Y.Gillet, D.R.Hamann, L.He, G.Jomard, J.Laflamme Janssen, S.Le Roux,
- A.Levitt, A.Lherbier, F.Liu, I.Lukacevic, A.Martin, C.Martins,
- M.J.T.Oliveira, S.Ponce, Y.Pouillon, T.Rangel, G.-M.Rignanese,
- A.H.Romero, B.Rousseau, O.Rubel, A.A.Shukri, M.Stankovski, M.Torrent,
- M.J.Van Setten, B.Van Troeye, M.J.Verstraete, D.Waroquier, J.Wiktor,
- B.Xu, A.Zhou, J.W.Zwanziger.
- Comment: the fourth generic paper describing the ABINIT project.
- Note that a version of this paper, that is not formatted for Computer Phys. Comm. 
- is available at https://www.abinit.org/sites/default/files/ABINIT16.pdf .
- The licence allows the authors to put it on the Web.
- DOI and bibtex: see https://docs.abinit.org/theory/bibliography/#gonze2016
 Proc.   0 individual time (sec): cpu=      27572.4  wall=      11154.6

 Calculation completed.
.Delivered  19 WARNINGs and  17 COMMENTs to log file.

--- !FinalSummary
program: abinit
version: 9.2.2
start_datetime: Tue Mar 16 16:59:15 2021
end_datetime: Tue Mar 16 20:05:10 2021
overall_cpu_time:       27572.4
overall_wall_time:       11154.6
exit_requested_by_user: no 
timelimit: 0
pseudos: 
    H   : 314bcaf03656e059fe5e18308886932b
    O   : 53efa4611cf1d581a18f615e1ccbb85d
    Si  : 9cf3649cb539efbe8c67e8db9d375af0
usepaw: 0
mpi_procs: 1
omp_threads: 8
num_warnings: 19
num_comments: 17

