 DIM-GROUP
 3  1
 PRIMVEC
 7.9376581288E+00   0.0000000000E+00   0.0000000000E+00
 0.0000000000E+00   7.9376581288E+00   0.0000000000E+00
 0.0000000000E+00   0.0000000000E+00   7.9376581288E+00
 PRIMCOORD
           9  1
       14   -5.2838642121E-18   -6.6622102815E-01    1.4932249105E-18
        8   -1.2277194056E+00   -1.8208787050E+00    1.4932249105E-18
        8    1.2277194056E+00   -1.8208787050E+00    1.4932249105E-18
        1   -2.7027111349E+00    7.0763782974E-01   -3.9024855403E-01
        1   -2.7027111349E+00    7.0763782974E-01    3.9024855403E-01
        1   -2.1013010154E+00   -1.2351174285E+00    1.4932249105E-18
        1    2.7027111349E+00    7.0763782974E-01   -3.9024855403E-01
        1    2.7027111349E+00    7.0763782974E-01    3.9024855403E-01
        1    2.1013010154E+00   -1.2351174285E+00    1.4932249105E-18
 ATOMS
       14   -5.2838642121E-18   -6.6622102815E-01    1.4932249105E-18
        8   -1.2277194056E+00   -1.8208787050E+00    1.4932249105E-18
        8    1.2277194056E+00   -1.8208787050E+00    1.4932249105E-18
        1   -2.7027111349E+00    7.0763782974E-01   -3.9024855403E-01
        1   -2.7027111349E+00    7.0763782974E-01    3.9024855403E-01
        1   -2.1013010154E+00   -1.2351174285E+00    1.4932249105E-18
        1    2.7027111349E+00    7.0763782974E-01   -3.9024855403E-01
        1    2.7027111349E+00    7.0763782974E-01    3.9024855403E-01
        1    2.1013010154E+00   -1.2351174285E+00    1.4932249105E-18
 BEGIN_BLOCK_DATAGRID3D
 datagrids
 DATAGRID_3D_DENSITY
          49          49          49
 0.0 0.0 0.0 
 7.9376581288E+00   0.0000000000E+00   0.0000000000E+00
 0.0000000000E+00   7.9376581288E+00   0.0000000000E+00
 0.0000000000E+00   0.0000000000E+00   7.9376581288E+00
         0.74337E-01           0.72998E-01           0.68616E-01           0.60613E-01           0.49472E-01           0.37246E-01  
         0.26377E-01           0.18277E-01           0.13066E-01           0.10296E-01           0.97282E-02           0.11456E-01  
         0.15415E-01           0.21056E-01           0.27568E-01           0.33639E-01           0.37000E-01           0.35753E-01  
         0.30412E-01           0.23290E-01           0.16302E-01           0.10450E-01           0.63974E-02           0.43014E-02  
         0.37074E-02           0.43014E-02           0.63974E-02           0.10450E-01           0.16302E-01           0.23290E-01  
         0.30412E-01           0.35753E-01           0.37000E-01           0.33639E-01           0.27568E-01           0.21056E-01  
         0.15415E-01           0.11456E-01           0.97282E-02           0.10296E-01           0.13066E-01           0.18277E-01  
         0.26377E-01           0.37246E-01           0.49472E-01           0.60613E-01           0.68616E-01           0.72998E-01  
         0.74337E-01           0.71367E-01           0.69066E-01           0.62496E-01           0.52688E-01           0.41326E-01  
         0.30348E-01           0.21313E-01           0.14881E-01           0.10881E-01           0.90668E-02           0.96975E-02  
         0.13280E-01           0.19906E-01           0.29560E-01           0.42480E-01           0.56766E-01           0.65945E-01  
         0.63642E-01           0.51436E-01           0.36746E-01           0.24521E-01           0.15467E-01           0.92666E-02  
         0.58327E-02           0.47857E-02           0.58327E-02           0.92666E-02           0.15467E-01           0.24521E-01  
         0.36746E-01           0.51436E-01           0.63642E-01           0.65945E-01           0.56766E-01           0.42480E-01  
         0.29560E-01           0.19906E-01           0.13280E-01           0.96975E-02           0.90668E-02           0.10881E-01  
         0.14881E-01           0.21313E-01           0.30348E-01           0.41326E-01           0.52688E-01           0.62496E-01  
         0.69066E-01           0.71367E-01           0.55559E-01           0.53612E-01           0.48185E-01           0.40354E-01  
         0.31542E-01           0.23218E-01           0.16513E-01           0.11841E-01           0.90834E-02           0.83588E-02  
         0.10388E-01           0.15924E-01           0.25492E-01           0.41107E-01           0.66210E-01           0.98214E-01  
         0.12068E+00           0.11579E+00           0.87661E-01           0.56483E-01           0.34331E-01           0.20736E-01  
         0.12275E-01           0.74746E-02           0.59380E-02           0.74746E-02           0.12275E-01           0.20736E-01  
         0.34331E-01           0.56483E-01           0.87661E-01           0.11579E+00           0.12068E+00           0.98214E-01  
         0.66210E-01           0.41107E-01           0.25492E-01           0.15924E-01           0.10388E-01           0.83588E-02  
         0.90834E-02           0.11841E-01           0.16513E-01           0.23218E-01           0.31542E-01           0.40354E-01  
         0.48185E-01           0.53612E-01           0.55559E-01           0.38674E-01           0.37335E-01           0.33622E-01  
         0.28303E-01           0.22367E-01           0.16808E-01           0.12367E-01           0.92964E-02           0.76336E-02  
         0.78617E-02           0.11048E-01           0.18124E-01           0.30488E-01           0.53400E-01           0.95346E-01  
         0.15333E+00           0.19579E+00           0.18686E+00           0.13472E+00           0.79617E-01           0.44093E-01  
         0.25220E-01           0.14731E-01           0.88441E-02           0.69057E-02           0.88441E-02           0.14731E-01  
         0.25220E-01           0.44093E-01           0.79617E-01           0.13472E+00           0.18686E+00           0.19579E+00  
         0.15333E+00           0.95346E-01           0.53400E-01           0.30488E-01           0.18124E-01           0.11048E-01  
         0.78617E-02           0.76336E-02           0.92964E-02           0.12367E-01           0.16808E-01           0.22367E-01  
         0.28303E-01           0.33622E-01           0.37335E-01           0.38674E-01           0.25715E-01           0.24811E-01  
         0.22338E-01           0.18876E-01           0.15115E-01           0.11669E-01           0.89499E-02           0.70889E-02  
         0.62452E-02           0.71413E-02           0.11017E-01           0.18912E-01           0.32916E-01           0.60603E-01  
         0.11414E+00           0.19042E+00           0.24704E+00           0.23510E+00           0.16589E+00           0.94157E-01  
         0.49699E-01           0.27529E-01           0.15922E-01           0.94841E-02           0.73372E-02           0.94841E-02  
         0.15922E-01           0.27529E-01           0.49699E-01           0.94157E-01           0.16589E+00           0.23510E+00  
         0.24704E+00           0.19042E+00           0.11414E+00           0.60603E-01           0.32916E-01           0.18912E-01  
         0.11017E-01           0.71413E-02           0.62452E-02           0.70889E-02           0.89499E-02           0.11669E-01  
         0.15115E-01           0.18876E-01           0.22338E-01           0.24811E-01           0.25715E-01           0.16401E-01  
         0.15851E-01           0.14348E-01           0.12258E-01           0.10013E-01           0.79728E-02           0.63703E-02  
         0.52933E-02           0.49697E-02           0.61766E-02           0.10146E-01           0.17913E-01           0.31397E-01  
         0.57447E-01           0.10699E+00           0.17698E+00           0.22876E+00           0.21790E+00           0.15465E+00  
         0.88791E-01           0.47564E-01           0.26627E-01           0.15428E-01           0.91603E-02           0.70744E-02  
         0.91603E-02           0.15428E-01           0.26627E-01           0.47564E-01           0.88791E-01           0.15465E+00  
         0.21790E+00           0.22876E+00           0.17698E+00           0.10699E+00           0.57447E-01           0.31397E-01  
         0.17913E-01           0.10146E-01           0.61766E-02           0.49697E-02           0.52933E-02           0.63703E-02  
         0.79728E-02           0.10013E-01           0.12258E-01           0.14348E-01           0.15851E-01           0.16401E-01  
         0.99395E-02           0.96799E-02           0.89348E-02           0.78274E-02           0.65783E-02           0.54104E-02  
         0.44935E-02           0.39221E-02           0.39049E-02           0.50920E-02           0.85801E-02           0.15329E-01  
         0.26451E-01           0.45775E-01           0.79414E-01           0.12469E+00           0.15755E+00           0.15088E+00  
         0.11078E+00           0.67665E-01           0.38950E-01           0.22842E-01           0.13397E-01           0.80136E-02  
         0.62528E-02           0.80136E-02           0.13397E-01           0.22842E-01           0.38950E-01           0.67665E-01  
         0.11078E+00           0.15088E+00           0.15755E+00           0.12469E+00           0.79414E-01           0.45775E-01  
         0.26451E-01           0.15329E-01           0.85801E-02           0.50920E-02           0.39049E-02           0.39221E-02  
         0.44935E-02           0.54104E-02           0.65783E-02           0.78274E-02           0.89348E-02           0.96799E-02  
         0.99395E-02           0.59836E-02           0.58745E-02           0.55306E-02           0.49506E-02           0.42372E-02  
         0.35548E-02           0.30554E-02           0.28271E-02           0.29826E-02           0.39470E-02           0.65882E-02  
         0.11788E-01           0.20024E-01           0.32334E-01           0.50524E-01           0.72618E-01           0.87957E-01  
         0.85048E-01           0.66323E-01           0.44731E-01           0.28415E-01           0.17562E-01           0.10448E-01  
         0.64151E-02           0.51462E-02           0.64151E-02           0.10448E-01           0.17562E-01           0.28415E-01  
         0.44731E-01           0.66323E-01           0.85048E-01           0.87957E-01           0.72618E-01           0.50524E-01  
         0.32334E-01           0.20024E-01           0.11788E-01           0.65882E-02           0.39470E-02           0.29826E-02  
         0.28271E-02           0.30554E-02           0.35548E-02           0.42372E-02           0.49506E-02           0.55306E-02  
         0.58745E-02           0.59836E-02           0.37681E-02           0.37073E-02           0.34996E-02           0.31250E-02  
         0.26595E-02           0.22384E-02           0.19782E-02           0.19457E-02           0.21749E-02           0.28681E-02  
         0.46011E-02           0.81280E-02           0.13771E-01           0.21323E-01           0.30497E-01           0.39975E-01  
         0.46038E-01           0.44982E-01           0.37518E-01           0.27857E-01           0.19109E-01           0.12165E-01  
         0.73377E-02           0.47500E-02           0.39901E-02           0.47500E-02           0.73377E-02           0.12165E-01  
         0.19109E-01           0.27857E-01           0.37518E-01           0.44982E-01           0.46038E-01           0.39975E-01  
         0.30497E-01           0.21323E-01           0.13771E-01           0.81280E-02           0.46011E-02           0.28681E-02  
         0.21749E-02           0.19457E-02           0.19782E-02           0.22384E-02           0.26595E-02           0.31250E-02  
         0.34996E-02           0.37073E-02           0.37681E-02           0.23758E-02           0.23321E-02           0.21866E-02  
         0.19410E-02           0.16557E-02           0.14120E-02           0.12785E-02           0.13151E-02           0.15433E-02  
         0.20176E-02           0.30275E-02           0.50907E-02           0.85377E-02           0.13093E-01           0.18056E-01  
         0.22476E-01           0.25030E-01           0.24603E-01           0.21393E-01           0.16709E-01           0.11807E-01  
         0.75897E-02           0.47195E-02           0.33163E-02           0.29445E-02           0.33163E-02           0.47195E-02  
         0.75897E-02           0.11807E-01           0.16709E-01           0.21393E-01           0.24603E-01           0.25030E-01  
         0.22476E-01           0.18056E-01           0.13093E-01           0.85377E-02           0.50907E-02           0.30275E-02  
         0.20176E-02           0.15433E-02           0.13151E-02           0.12785E-02           0.14120E-02           0.16557E-02  
         0.19410E-02           0.21866E-02           0.23321E-02           0.23758E-02           0.13684E-02           0.13461E-02  
         0.12756E-02           0.11651E-02           0.10391E-02           0.92386E-03           0.85406E-03           0.88924E-03  
         0.10761E-02           0.14145E-02           0.19833E-02           0.30327E-02           0.48080E-02           0.72478E-02  
         0.99360E-02           0.12257E-01           0.13547E-01           0.13341E-01           0.11725E-01           0.92657E-02  
         0.66214E-02           0.43775E-02           0.29136E-02           0.22451E-02           0.20845E-02           0.22451E-02  
         0.29136E-02           0.43775E-02           0.66214E-02           0.92657E-02           0.11725E-01           0.13341E-01  
         0.13547E-01           0.12257E-01           0.99360E-02           0.72478E-02           0.48080E-02           0.30327E-02  
         0.19833E-02           0.14145E-02           0.10761E-02           0.88924E-03           0.85406E-03           0.92386E-03  
         0.10391E-02           0.11651E-02           0.12756E-02           0.13461E-02           0.13684E-02           0.76940E-03  
         0.75859E-03           0.72939E-03           0.69077E-03           0.65018E-03           0.60257E-03           0.55882E-03  
         0.57357E-03           0.70634E-03           0.95852E-03           0.13137E-02           0.18343E-02           0.26333E-02  
         0.37268E-02           0.49713E-02           0.60880E-02           0.67277E-02           0.66379E-02           0.58647E-02  
         0.47154E-02           0.35143E-02           0.25015E-02           0.18219E-02           0.14875E-02           0.13983E-02  
         0.14875E-02           0.18219E-02           0.25015E-02           0.35143E-02           0.47154E-02           0.58647E-02  
         0.66379E-02           0.67277E-02           0.60880E-02           0.49713E-02           0.37268E-02           0.26333E-02  
         0.18343E-02           0.13137E-02           0.95852E-03           0.70634E-03           0.57357E-03           0.55882E-03  
         0.60257E-03           0.65018E-03           0.69077E-03           0.72939E-03           0.75859E-03           0.76940E-03  
         0.48467E-03           0.47471E-03           0.45115E-03           0.42278E-03           0.39601E-03           0.36377E-03  
         0.32967E-03           0.33162E-03           0.41212E-03           0.58242E-03           0.82542E-03           0.11350E-02  
         0.15250E-02           0.19910E-02           0.24914E-02           0.29411E-02           0.32041E-02           0.31705E-02  
         0.28611E-02           0.24085E-02           0.19303E-02           0.14905E-02           0.11444E-02           0.93006E-03  
         0.85831E-03           0.93006E-03           0.11444E-02           0.14905E-02           0.19303E-02           0.24085E-02  
         0.28611E-02           0.31705E-02           0.32041E-02           0.29411E-02           0.24914E-02           0.19910E-02  
         0.15250E-02           0.11350E-02           0.82542E-03           0.58242E-03           0.41212E-03           0.33162E-03  
         0.32967E-03           0.36377E-03           0.39601E-03           0.42278E-03           0.45115E-03           0.47471E-03  
         0.48467E-03           0.32273E-03           0.31243E-03           0.28850E-03           0.25980E-03           0.23327E-03  
         0.21049E-03           0.19400E-03           0.19587E-03           0.23398E-03           0.31940E-03           0.45979E-03  
         0.66217E-03           0.90688E-03           0.11563E-02           0.13831E-02           0.15672E-02           0.16690E-02  
         0.16529E-02           0.15280E-02           0.13391E-02           0.11216E-02           0.88968E-03           0.67475E-03  
         0.52785E-03           0.47803E-03           0.52785E-03           0.67475E-03           0.88968E-03           0.11216E-02  
         0.13391E-02           0.15280E-02           0.16529E-02           0.16690E-02           0.15672E-02           0.13831E-02  
         0.11563E-02           0.90688E-03           0.66217E-03           0.45979E-03           0.31940E-03           0.23398E-03  
         0.19587E-03           0.19400E-03           0.21049E-03           0.23327E-03           0.25980E-03           0.28850E-03  
         0.31243E-03           0.32273E-03           0.16903E-03           0.16519E-03           0.15589E-03           0.14478E-03  
         0.13459E-03           0.12691E-03           0.12551E-03           0.13311E-03           0.14872E-03           0.17690E-03  
         0.23574E-03           0.34248E-03           0.48743E-03           0.63758E-03           0.76665E-03           0.86576E-03  
         0.92068E-03           0.91379E-03           0.84867E-03           0.74580E-03           0.62027E-03           0.48456E-03  
         0.36574E-03           0.28962E-03           0.26416E-03           0.28962E-03           0.36574E-03           0.48456E-03  
         0.62027E-03           0.74580E-03           0.84867E-03           0.91379E-03           0.92068E-03           0.86576E-03  
         0.76665E-03           0.63758E-03           0.48743E-03           0.34248E-03           0.23574E-03           0.17690E-03  
         0.14872E-03           0.13311E-03           0.12551E-03           0.12691E-03           0.13459E-03           0.14478E-03  
         0.15589E-03           0.16519E-03           0.16903E-03           0.78865E-04           0.78139E-04           0.76743E-04  
         0.75967E-04           0.76072E-04           0.78614E-04           0.86160E-04           0.98430E-04           0.10656E-03  
         0.11210E-03           0.13070E-03           0.17212E-03           0.23571E-03           0.30583E-03           0.37113E-03  
         0.42668E-03           0.46176E-03           0.46003E-03           0.42243E-03           0.36843E-03           0.30862E-03  
         0.24853E-03           0.20159E-03           0.17440E-03           0.16472E-03           0.17440E-03           0.20159E-03  
         0.24853E-03           0.30862E-03           0.36843E-03           0.42243E-03           0.46003E-03           0.46176E-03  
         0.42668E-03           0.37113E-03           0.30583E-03           0.23571E-03           0.17212E-03           0.13070E-03  
         0.11210E-03           0.10656E-03           0.98430E-04           0.86160E-04           0.78614E-04           0.76072E-04  
         0.75967E-04           0.76743E-04           0.78139E-04           0.78865E-04           0.45915E-04           0.44977E-04  
         0.43880E-04           0.43331E-04           0.41162E-04           0.39943E-04           0.43974E-04           0.52856E-04  
         0.60921E-04           0.68794E-04           0.80818E-04           0.99185E-04           0.12238E-03           0.14348E-03  
         0.16799E-03           0.19248E-03           0.21006E-03           0.20964E-03           0.19252E-03           0.17203E-03  
         0.15139E-03           0.13487E-03           0.12015E-03           0.11095E-03           0.10867E-03           0.11095E-03  
         0.12015E-03           0.13487E-03           0.15139E-03           0.17203E-03           0.19252E-03           0.20964E-03  
         0.21006E-03           0.19248E-03           0.16799E-03           0.14348E-03           0.12238E-03           0.99185E-04  
         0.80818E-04           0.68794E-04           0.60921E-04           0.52856E-04           0.43974E-04           0.39943E-04  
         0.41162E-04           0.43331E-04           0.43880E-04           0.44977E-04           0.45915E-04           0.37861E-04  
         0.35806E-04           0.30584E-04           0.24746E-04           0.21710E-04           0.20319E-04           0.20103E-04  
         0.22342E-04           0.27490E-04           0.37205E-04           0.49798E-04           0.63275E-04           0.74986E-04  
         0.81929E-04           0.92959E-04           0.10495E-03           0.11368E-03           0.11092E-03           0.10039E-03  
         0.93248E-04           0.86094E-04           0.81931E-04           0.72426E-04           0.61568E-04           0.58173E-04  
         0.61568E-04           0.72426E-04           0.81931E-04           0.86094E-04           0.93248E-04           0.10039E-03  
         0.11092E-03           0.11368E-03           0.10495E-03           0.92959E-04           0.81929E-04           0.74986E-04  
         0.63275E-04           0.49798E-04           0.37205E-04           0.27490E-04           0.22342E-04           0.20103E-04  
         0.20319E-04           0.21710E-04           0.24746E-04           0.30584E-04           0.35806E-04           0.37861E-04  
         0.16509E-04           0.14955E-04           0.13503E-04           0.12038E-04           0.12146E-04           0.12665E-04  
         0.12691E-04           0.11962E-04           0.12350E-04           0.17474E-04           0.27132E-04           0.36525E-04  
         0.44691E-04           0.51226E-04           0.58722E-04           0.66182E-04           0.69422E-04           0.68035E-04  
         0.62287E-04           0.56437E-04           0.51991E-04           0.47567E-04           0.38036E-04           0.27901E-04  
         0.23481E-04           0.27901E-04           0.38036E-04           0.47567E-04           0.51991E-04           0.56437E-04  
         0.62287E-04           0.68035E-04           0.69422E-04           0.66182E-04           0.58722E-04           0.51226E-04  
         0.44691E-04           0.36525E-04           0.27132E-04           0.17474E-04           0.12350E-04           0.11962E-04  
         0.12691E-04           0.12665E-04           0.12146E-04           0.12038E-04           0.13503E-04           0.14955E-04  
         0.16509E-04           0.18332E-04           0.13892E-04           0.84249E-05           0.54869E-05           0.54402E-05  
         0.53915E-05           0.62889E-05           0.60621E-05           0.58305E-05           0.73138E-05           0.13447E-04  
         0.19204E-04           0.21690E-04           0.27871E-04           0.37876E-04           0.46931E-04           0.44747E-04  
         0.39605E-04           0.35882E-04           0.30597E-04           0.25750E-04           0.21858E-04           0.19161E-04  
         0.15492E-04           0.11999E-04           0.15492E-04           0.19161E-04           0.21858E-04           0.25750E-04  
         0.30597E-04           0.35882E-04           0.39605E-04           0.44747E-04           0.46931E-04           0.37876E-04  
         0.27871E-04           0.21690E-04           0.19204E-04           0.13447E-04           0.73138E-05           0.58305E-05  
         0.60621E-05           0.62889E-05           0.53915E-05           0.54402E-05           0.54869E-05           0.84249E-05  
         0.13892E-04           0.18332E-04           0.16616E-04           0.16869E-04           0.15511E-04           0.99683E-05  
         0.68629E-05           0.59206E-05           0.89438E-05           0.10129E-04           0.11340E-04           0.12770E-04  
         0.15011E-04           0.17117E-04           0.15240E-04           0.17200E-04           0.22028E-04           0.28703E-04  
         0.30709E-04           0.27774E-04           0.23019E-04           0.18253E-04           0.13602E-04           0.11485E-04  
         0.11769E-04           0.12886E-04           0.13462E-04           0.12886E-04           0.11769E-04           0.11485E-04  
         0.13602E-04           0.18253E-04           0.23019E-04           0.27774E-04           0.30709E-04           0.28703E-04  
         0.22028E-04           0.17200E-04           0.15240E-04           0.17117E-04           0.15011E-04           0.12770E-04  
         0.11340E-04           0.10129E-04           0.89438E-05           0.59206E-05           0.68629E-05           0.99683E-05  
         0.15511E-04           0.16869E-04           0.16616E-04           0.32008E-05           0.62685E-05           0.15598E-04  
         0.28164E-04           0.37525E-04           0.39265E-04           0.45996E-04           0.52197E-04           0.52376E-04  
         0.50551E-04           0.49219E-04           0.44678E-04           0.31520E-04           0.19424E-04           0.14434E-04  
         0.14012E-04           0.13474E-04           0.15122E-04           0.18707E-04           0.18162E-04           0.10997E-04  
         0.74808E-05           0.80614E-05           0.10758E-04           0.13151E-04           0.10758E-04           0.80614E-05  
         0.74808E-05           0.10997E-04           0.18162E-04           0.18707E-04           0.15122E-04           0.13474E-04  
         0.14012E-04           0.14434E-04           0.19424E-04           0.31520E-04           0.44678E-04           0.49219E-04  
         0.50551E-04           0.52376E-04           0.52197E-04           0.45996E-04           0.39265E-04           0.37525E-04  
         0.28164E-04           0.15598E-04           0.62685E-05           0.32008E-05           0.13346E-04           0.20631E-04  
         0.41660E-04           0.67400E-04           0.83982E-04           0.88835E-04           0.94813E-04           0.10084E-03  
         0.98653E-04           0.91631E-04           0.91226E-04           0.92375E-04           0.78609E-04           0.53475E-04  
         0.34251E-04           0.21749E-04           0.12001E-04           0.94835E-05           0.14145E-04           0.18803E-04  
         0.15392E-04           0.93538E-05           0.59895E-05           0.51285E-05           0.46224E-05           0.51285E-05  
         0.59895E-05           0.93538E-05           0.15392E-04           0.18803E-04           0.14145E-04           0.94835E-05  
         0.12001E-04           0.21749E-04           0.34251E-04           0.53475E-04           0.78609E-04           0.92375E-04  
         0.91226E-04           0.91631E-04           0.98653E-04           0.10084E-03           0.94813E-04           0.88835E-04  
         0.83982E-04           0.67400E-04           0.41660E-04           0.20631E-04           0.13346E-04           0.92336E-04  
         0.91299E-04           0.90734E-04           0.90665E-04           0.88788E-04           0.91493E-04           0.10124E-03  
         0.10893E-03           0.10690E-03           0.98264E-04           0.96718E-04           0.10570E-03           0.11229E-03  
         0.10633E-03           0.90591E-04           0.63983E-04           0.35950E-04           0.17459E-04           0.10945E-04  
         0.11644E-04           0.12367E-04           0.11740E-04           0.61829E-05           0.18864E-05           0.10642E-05  
         0.18864E-05           0.61829E-05           0.11740E-04           0.12367E-04           0.11644E-04           0.10945E-04  
         0.17459E-04           0.35950E-04           0.63983E-04           0.90591E-04           0.10633E-03           0.11229E-03  
         0.10570E-03           0.96718E-04           0.98264E-04           0.10690E-03           0.10893E-03           0.10124E-03  
         0.91493E-04           0.88788E-04           0.90665E-04           0.90734E-04           0.91299E-04           0.92336E-04  
         0.18653E-03           0.16766E-03           0.13132E-03           0.11182E-03           0.11816E-03           0.14314E-03  
         0.17961E-03           0.20972E-03           0.21059E-03           0.18651E-03           0.15914E-03           0.14006E-03  
         0.13097E-03           0.12740E-03           0.12657E-03           0.11691E-03           0.89248E-04           0.49687E-04  
         0.19963E-04           0.81368E-05           0.62784E-05           0.10911E-04           0.11125E-04           0.48584E-05  
         0.11521E-05           0.48584E-05           0.11125E-04           0.10911E-04           0.62784E-05           0.81368E-05  
         0.19963E-04           0.49687E-04           0.89248E-04           0.11691E-03           0.12657E-03           0.12740E-03  
         0.13097E-03           0.14006E-03           0.15914E-03           0.18651E-03           0.21059E-03           0.20972E-03  
         0.17961E-03           0.14314E-03           0.11816E-03           0.11182E-03           0.13132E-03           0.16766E-03  
         0.18653E-03           0.18052E-03           0.18656E-03           0.20742E-03           0.25189E-03           0.33108E-03  
         0.43468E-03           0.53242E-03           0.60040E-03           0.61328E-03           0.56020E-03           0.46467E-03  
         0.35646E-03           0.25794E-03           0.18304E-03           0.13696E-03           0.11806E-03           0.11036E-03  
         0.91270E-04           0.52893E-04           0.19035E-04           0.74575E-05           0.77621E-05           0.12871E-04  
         0.12421E-04           0.83167E-05           0.12421E-04           0.12871E-04           0.77621E-05           0.74575E-05  
         0.19035E-04           0.52893E-04           0.91270E-04           0.11036E-03           0.11806E-03           0.13696E-03  
         0.18304E-03           0.25794E-03           0.35646E-03           0.46467E-03           0.56020E-03           0.61328E-03  
         0.60040E-03           0.53242E-03           0.43468E-03           0.33108E-03           0.25189E-03           0.20742E-03  