
.Version 9.2.2 of ABINIT 
.(MPI version, prepared for a x86_64_darwin19.6.0_gnu10.2 computer) 

.Copyright (C) 1998-2020 ABINIT group . 
 ABINIT comes with ABSOLUTELY NO WARRANTY.
 It is free software, and you are welcome to redistribute it
 under certain conditions (GNU General Public License,
 see ~abinit/COPYING or http://www.gnu.org/copyleft/gpl.txt).

 ABINIT is a project of the Universite Catholique de Louvain,
 Corning Inc. and other collaborators, see ~abinit/doc/developers/contributors.txt .
 Please read https://docs.abinit.org/theory/acknowledgments for suggested
 acknowledgments of the ABINIT effort.
 For more information, see https://www.abinit.org .

.Starting date : Thu 11 Mar 2021.
- ( at 21h17 )
  
- input  file    -> sth1_relax.in
- output file    -> sth1_relax.abo
- root for input  files -> sth1_relaxi
- root for output files -> sth1_relaxo


 DATASET    1 : space group P2 (#  3); Bravais mP (primitive monocl.)
================================================================================
 Values of the parameters that define the memory need for DATASET  1.
     intxc =       0    ionmov =       0      iscf =       7    lmnmax =       6
     lnmax =       6     mgfft =      48  mpssoang =       3    mqgrid =    3001
     natom =       7  nloc_mem =       1    nspden =       1   nspinor =       1
    nsppol =       1      nsym =       2    n1xccc =    2501    ntypat =       3
    occopt =       1   xclevel =       1
-    mband =          20        mffmem =           1         mkmem =           1
       mpw =        6776          nfft =      110592          nkpt =           1
================================================================================
P This job should need less than                      37.459 Mbytes of memory.
  Rough estimation (10% accuracy) of disk space for files :
_ WF disk file :      2.070 Mbytes ; DEN or POT disk file :      0.846 Mbytes.
================================================================================

--------------------------------------------------------------------------------
------------- Echo of variables that govern the present computation ------------
--------------------------------------------------------------------------------
-
- outvars: echo of selected default values                                      
-   iomode0 =  0 , fftalg0 =312 , wfoptalg0 =  0
-
- outvars: echo of global parameters not present in the input file              
-  max_nthreads =    8
-
 -outvars: echo values of preprocessed input variables --------
            acell      1.5000000000E+01  1.5000000000E+01  1.5000000000E+01 Bohr
              amu      1.00794000E+00  1.59994000E+01  2.80855000E+01
           diemac      1.20000000E+01
             ecut      1.20000000E+01 Hartree
-          fftalg         312
           istwfk        1
              ixc       -1012
           jdtset        1
              kpt      5.00000000E-01  5.00000000E-01  5.00000000E-01
         kptrlatt        1    0    0      0    1    0      0    0    1
          kptrlen      1.50000000E+04
P           mkmem           1
            natom           7
            nband          20
           ndtset           1
            ngfft          48      48      48
             nkpt           1
            nstep         100
             nsym           2
            ntime         100
           ntypat           3
              occ      2.000000  2.000000  2.000000  2.000000  2.000000  2.000000
                       2.000000  2.000000  2.000000  2.000000  0.000000  0.000000
                       0.000000  0.000000  0.000000  0.000000  0.000000  0.000000
                       0.000000  0.000000
        optforces           1
           shiftk      5.00000000E-01  5.00000000E-01  5.00000000E-01
          spgroup           3
           symrel      1  0  0   0  1  0   0  0  1      -1  0  0   0  1  0   0  0 -1
           tolrff      2.00000000E-02
            typat      3  2  2  1  1  1  1
           xangst      0.0000000000E+00 -6.6622102815E-01  0.0000000000E+00
                      -1.2277194056E+00 -1.8208787050E+00  0.0000000000E+00
                       1.2277194056E+00 -1.8208787050E+00  0.0000000000E+00
                       0.0000000000E+00 -6.6622102815E-01 -1.0583544172E+00
                       0.0000000000E+00 -6.6622102815E-01  1.0583544172E+00
                      -1.2277194056E+00 -1.8208787050E+00  1.0583544172E+00
                       1.2277194056E+00 -1.8208787050E+00 -1.0583544172E+00
            xcart      0.0000000000E+00 -1.2589752872E+00  0.0000000000E+00
                      -2.3200534445E+00 -3.4409620737E+00  0.0000000000E+00
                       2.3200534445E+00 -3.4409620737E+00  0.0000000000E+00
                       0.0000000000E+00 -1.2589752872E+00 -2.0000000000E+00
                       0.0000000000E+00 -1.2589752872E+00  2.0000000000E+00
                      -2.3200534445E+00 -3.4409620737E+00  2.0000000000E+00
                       2.3200534445E+00 -3.4409620737E+00 -2.0000000000E+00
             xred      0.0000000000E+00 -8.3931685811E-02  0.0000000000E+00
                      -1.5467022964E-01 -2.2939747158E-01  0.0000000000E+00
                       1.5467022964E-01 -2.2939747158E-01  0.0000000000E+00
                       0.0000000000E+00 -8.3931685811E-02 -1.3333333333E-01
                       0.0000000000E+00 -8.3931685811E-02  1.3333333333E-01
                      -1.5467022964E-01 -2.2939747158E-01  1.3333333333E-01
                       1.5467022964E-01 -2.2939747158E-01 -1.3333333333E-01
            znucl        1.00000    8.00000   14.00000

================================================================================

 chkinp: Checking input parameters for consistency, jdtset=   1.
