
.Version 9.2.2 of ABINIT 
.(MPI version, prepared for a x86_64_darwin19.6.0_gnu10.2 computer) 

.Copyright (C) 1998-2020 ABINIT group . 
 ABINIT comes with ABSOLUTELY NO WARRANTY.
 It is free software, and you are welcome to redistribute it
 under certain conditions (GNU General Public License,
 see ~abinit/COPYING or http://www.gnu.org/copyleft/gpl.txt).

 ABINIT is a project of the Universite Catholique de Louvain,
 Corning Inc. and other collaborators, see ~abinit/doc/developers/contributors.txt .
 Please read https://docs.abinit.org/theory/acknowledgments for suggested
 acknowledgments of the ABINIT effort.
 For more information, see https://www.abinit.org .

.Starting date : Thu 11 Mar 2021.
- ( at 21h18 )
  
- input  file    -> sth1_relax.in
- output file    -> sth1_relax.abo
- root for input  files -> sth1_relaxi
- root for output files -> sth1_relaxo


 DATASET    1 : space group P2 (#  3); Bravais mP (primitive monocl.)
================================================================================
 Values of the parameters that define the memory need for DATASET  1.
     intxc =       0    ionmov =       2      iscf =       7    lmnmax =       6
     lnmax =       6     mgfft =      48  mpssoang =       3    mqgrid =    3001
     natom =       7  nloc_mem =       1    nspden =       1   nspinor =       1
    nsppol =       1      nsym =       2    n1xccc =    2501    ntypat =       3
    occopt =       1   xclevel =       1
-    mband =          20        mffmem =           1         mkmem =           1
       mpw =        6776          nfft =      110592          nkpt =           1
================================================================================
P This job should need less than                      37.462 Mbytes of memory.
  Rough estimation (10% accuracy) of disk space for files :
_ WF disk file :      2.070 Mbytes ; DEN or POT disk file :      0.846 Mbytes.
================================================================================

--------------------------------------------------------------------------------
------------- Echo of variables that govern the present computation ------------
--------------------------------------------------------------------------------
-
- outvars: echo of selected default values                                      
-   iomode0 =  0 , fftalg0 =312 , wfoptalg0 =  0
-
- outvars: echo of global parameters not present in the input file              
-  max_nthreads =    8
-
 -outvars: echo values of preprocessed input variables --------
            acell      1.5000000000E+01  1.5000000000E+01  1.5000000000E+01 Bohr
              amu      1.00794000E+00  1.59994000E+01  2.80855000E+01
           diemac      1.20000000E+01
             ecut      1.20000000E+01 Hartree
-          fftalg         312
           ionmov           2
           istwfk        1
              ixc       -1012
           jdtset        1
              kpt      5.00000000E-01  5.00000000E-01  5.00000000E-01
         kptrlatt        1    0    0      0    1    0      0    0    1
          kptrlen      1.50000000E+04
P           mkmem           1
            natom           7
            nband          20
           ndtset           1
            ngfft          48      48      48
             nkpt           1
            nstep         100
             nsym           2
            ntime         100
           ntypat           3
              occ      2.000000  2.000000  2.000000  2.000000  2.000000  2.000000
                       2.000000  2.000000  2.000000  2.000000  0.000000  0.000000
                       0.000000  0.000000  0.000000  0.000000  0.000000  0.000000
                       0.000000  0.000000
        optforces           1
           shiftk      5.00000000E-01  5.00000000E-01  5.00000000E-01
          spgroup           3
           symrel      1  0  0   0  1  0   0  0  1      -1  0  0   0  1  0   0  0 -1
           tolrff      2.00000000E-02
            typat      3  2  2  1  1  1  1
           xangst      0.0000000000E+00 -6.6622102815E-01  0.0000000000E+00
                      -1.2277194056E+00 -1.8208787050E+00  0.0000000000E+00
                       1.2277194056E+00 -1.8208787050E+00  0.0000000000E+00
                       0.0000000000E+00 -6.6622102815E-01 -1.0583544172E+00
                       0.0000000000E+00 -6.6622102815E-01  1.0583544172E+00
                      -1.2277194056E+00 -1.8208787050E+00  1.0583544172E+00
                       1.2277194056E+00 -1.8208787050E+00 -1.0583544172E+00
            xcart      0.0000000000E+00 -1.2589752872E+00  0.0000000000E+00
                      -2.3200534445E+00 -3.4409620737E+00  0.0000000000E+00
                       2.3200534445E+00 -3.4409620737E+00  0.0000000000E+00
                       0.0000000000E+00 -1.2589752872E+00 -2.0000000000E+00
                       0.0000000000E+00 -1.2589752872E+00  2.0000000000E+00
                      -2.3200534445E+00 -3.4409620737E+00  2.0000000000E+00
                       2.3200534445E+00 -3.4409620737E+00 -2.0000000000E+00
             xred      0.0000000000E+00 -8.3931685811E-02  0.0000000000E+00
                      -1.5467022964E-01 -2.2939747158E-01  0.0000000000E+00
                       1.5467022964E-01 -2.2939747158E-01  0.0000000000E+00
                       0.0000000000E+00 -8.3931685811E-02 -1.3333333333E-01
                       0.0000000000E+00 -8.3931685811E-02  1.3333333333E-01
                      -1.5467022964E-01 -2.2939747158E-01  1.3333333333E-01
                       1.5467022964E-01 -2.2939747158E-01 -1.3333333333E-01
            znucl        1.00000    8.00000   14.00000

================================================================================

 chkinp: Checking input parameters for consistency, jdtset=   1.

================================================================================
== DATASET  1 ==================================================================
-   mpi_nproc: 4, omp_nthreads: 8 (-1 if OMP is not activated)
-    --> not optimal distribution: autoparal keyword recommended in input file <--


--- !DatasetInfo
iteration_state: {dtset: 1, }
dimensions: {natom: 7, nkpt: 1, mband: 20, nsppol: 1, nspinor: 1, nspden: 1, mpw: 6776, }
cutoff_energies: {ecut:  12.0, pawecutdg:  -1.0, }
electrons: {nelect:   2.00000000E+01, charge:   0.00000000E+00, occopt:   1.00000000E+00, tsmear:   1.00000000E-02, }
meta: {optdriver: 0, ionmov: 2, optcell: 0, iscf: 7, paral_kgb: 0, }
...

 Real(R)+Recip(G) space primitive vectors, cartesian coordinates (Bohr,Bohr^-1):
 R(1)= 15.0000000  0.0000000  0.0000000  G(1)=  0.0666667  0.0000000  0.0000000
 R(2)=  0.0000000 15.0000000  0.0000000  G(2)=  0.0000000  0.0666667  0.0000000
 R(3)=  0.0000000  0.0000000 15.0000000  G(3)=  0.0000000  0.0000000  0.0666667
 Unit cell volume ucvol=  3.3750000E+03 bohr^3
 Angles (23,13,12)=  9.00000000E+01  9.00000000E+01  9.00000000E+01 degrees

 getcut: wavevector=  0.0000  0.0000  0.0000  ngfft=  48  48  48
         ecut(hartree)=     12.000   => boxcut(ratio)=   2.05208

--- Pseudopotential description ------------------------------------------------
- pspini: atom type   1  psp file is /Users/ali/Desktop/JDFTX/build-withlibxc/pseudopotentials/H.psp8
- pspatm: opening atomic psp file    /Users/ali/Desktop/JDFTX/build-withlibxc/pseudopotentials/H.psp8
- H     ONCVPSP-3.3.0  r_core=   1.00957   0.90680
-  1.00000   1.00000    171101                znucl, zion, pspdat
    8   -1012    1    4       300   0.00000   pspcod,pspxc,lmax,lloc,mmax,r2well
    2.99000000000000    0.00000000000000    0.00000000000000   rchrg,fchrg,qchrg
     nproj     2     1
     extension_switch     1
  pspatm : epsatm=    0.35491505
         --- l  ekb(1:nproj) -->
             0   -1.665338   -0.519510
             1   -0.275071
 pspatm: atomic psp has been read  and splines computed

- pspini: atom type   2  psp file is /Users/ali/Desktop/JDFTX/build-withlibxc/pseudopotentials/O.psp8
- pspatm: opening atomic psp file    /Users/ali/Desktop/JDFTX/build-withlibxc/pseudopotentials/O.psp8
- O     ONCVPSP-3.3.0  r_core=   1.35509   1.45563   1.35509
-  8.00000   6.00000    171101                znucl, zion, pspdat
    8   -1012    2    4       600   0.00000   pspcod,pspxc,lmax,lloc,mmax,r2well
    5.99000000000000    4.00000000000000    0.00000000000000   rchrg,fchrg,qchrg
     nproj     2     2     1
     extension_switch     1
  pspatm : epsatm=    6.27558977
         --- l  ekb(1:nproj) -->
             0    6.026028    0.816167
             1   -4.798959   -1.172522
             2   -1.033686
 pspatm: atomic psp has been read  and splines computed

- pspini: atom type   3  psp file is /Users/ali/Desktop/JDFTX/build-withlibxc/pseudopotentials/Si.psp8
- pspatm: opening atomic psp file    /Users/ali/Desktop/JDFTX/build-withlibxc/pseudopotentials/Si.psp8
- Si    ONCVPSP-3.3.0  r_core=   1.60303   1.72197   1.91712
- 14.00000   4.00000    171102                znucl, zion, pspdat
    8   -1012    2    4       600   0.00000   pspcod,pspxc,lmax,lloc,mmax,r2well
    5.99000000000000    4.00000000000000    0.00000000000000   rchrg,fchrg,qchrg
     nproj     2     2     2
     extension_switch     1
  pspatm : epsatm=    6.67004110
         --- l  ekb(1:nproj) -->
             0    5.565958    0.856966
             1    2.726111    0.629828
             2   -2.124804   -0.444604
 pspatm: atomic psp has been read  and splines computed

   4.12817616E+02                                ecore*ucvol(ha*bohr**3)
--------------------------------------------------------------------------------

_setup2: Arith. and geom. avg. npw (full set) are    6776.000    6776.000

================================================================================

=== [ionmov= 2] Broyden-Fletcher-Goldfard-Shanno method (forces)            
================================================================================

--- Iteration: (  1/100) Internal Cycle: (1/1)
--------------------------------------------------------------------------------

---SELF-CONSISTENT-FIELD CONVERGENCE--------------------------------------------

--- !BeginCycle
iteration_state: {dtset: 1, itime: 1, icycle: 1, }
solver: {iscf: 7, nstep: 100, nline: 4, wfoptalg: 0, }
tolerances: {tolrff: 2.00E-02, }
...

     iter   Etot(hartree)      deltaE(h)  residm     vres2    diffor    maxfor
 ETOT  1  -38.022117548233    -3.802E+01 2.731E-02 3.602E+02 3.184E-01 3.184E-01
 ETOT  2  -38.182831202226    -1.607E-01 1.209E-04 2.996E+01 2.528E-01 4.170E-01
 ETOT  3  -38.187923074330    -5.092E-03 5.924E-04 7.892E+00 1.028E-01 4.019E-01
 ETOT  4  -38.190713516456    -2.790E-03 1.442E-04 7.041E+00 8.002E-02 4.090E-01
 ETOT  5  -38.192672413220    -1.959E-03 1.940E-05 8.327E-01 3.244E-02 4.103E-01
 ETOT  6  -38.192707998548    -3.559E-05 4.630E-06 2.388E-01 3.656E-03 4.105E-01
 ETOT  7  -38.192712591058    -4.593E-06 8.473E-07 4.669E-02 1.363E-03 4.110E-01

 At SCF step    7, forces are sufficiently converged : 
  for the second time, max diff in force=  1.363E-03 is less than < tolrff=  2.000E-02 times max force

 Cartesian components of stress tensor (hartree/bohr^3)
  sigma(1 1)=  4.20818896E-04  sigma(3 2)=  0.00000000E+00
  sigma(2 2)=  4.66715299E-04  sigma(3 1)=  1.71927787E-05
  sigma(3 3)= -6.77539688E-06  sigma(2 1)=  0.00000000E+00


--- !ResultsGS
iteration_state: {dtset: 1, itime: 1, icycle: 1, }
comment   : Summary of ground state results
lattice_vectors:
- [ 15.0000000,   0.0000000,   0.0000000, ]
- [  0.0000000,  15.0000000,   0.0000000, ]
- [  0.0000000,   0.0000000,  15.0000000, ]
lattice_lengths: [  15.00000,   15.00000,   15.00000, ]
lattice_angles: [ 90.000,  90.000,  90.000, ] # degrees, (23, 13, 12)
lattice_volume:   3.3750000E+03
convergence: {deltae: -4.593E-06, res2:  4.669E-02, residm:  8.473E-07, diffor:  1.363E-03, }
etotal    :  -3.81927126E+01
entropy   :   0.00000000E+00
fermie    :  -2.06470892E-01
cartesian_stress_tensor: # hartree/bohr^3
- [  4.20818896E-04,   0.00000000E+00,   1.71927787E-05, ]
- [  0.00000000E+00,   4.66715299E-04,   0.00000000E+00, ]
- [  1.71927787E-05,   0.00000000E+00,  -6.77539688E-06, ]
pressure_GPa:  -8.6376E+00
xred      :
- [  0.0000E+00,  -8.3932E-02,   0.0000E+00, Si]
- [ -1.5467E-01,  -2.2940E-01,   0.0000E+00,  O]
- [  1.5467E-01,  -2.2940E-01,   0.0000E+00,  O]
- [  0.0000E+00,  -8.3932E-02,  -1.3333E-01,  H]
- [  0.0000E+00,  -8.3932E-02,   1.3333E-01,  H]
- [ -1.5467E-01,  -2.2940E-01,   1.3333E-01,  H]
- [  1.5467E-01,  -2.2940E-01,  -1.3333E-01,  H]
cartesian_forces: # hartree/bohr
- [ -0.00000000E+00,  -8.71635937E-02,  -0.00000000E+00, ]
- [ -3.60338160E-02,  -3.57849645E-04,   1.52922716E-02, ]
- [  3.60338160E-02,  -3.57849645E-04,  -1.52922716E-02, ]
- [ -4.72265231E-03,   6.10913726E-02,  -4.11002736E-01, ]
- [  4.72265231E-03,   6.10913726E-02,   4.11002736E-01, ]
- [ -1.68426631E-02,  -1.71517261E-02,  -5.88257575E-03, ]
- [  1.68426631E-02,  -1.71517261E-02,   5.88257575E-03, ]
force_length_stats: {min:   2.47479637E-02, max:   4.15545073E-01, mean:   1.49434554E-01, }
...

 Integrated electronic density in atomic spheres:
 ------------------------------------------------
 Atom  Sphere_radius  Integrated_density
    1        2.00000          2.83802542
    2        2.00000          6.22325278
    3        2.00000          6.22325278
    4        2.00000          1.92478528
    5        2.00000          1.92478528
    6        2.00000          2.89243628
    7        2.00000          2.89243628

---OUTPUT-----------------------------------------------------------------------

 Cartesian coordinates (xcart) [bohr]
  0.00000000000000E+00 -1.25897528716486E+00  0.00000000000000E+00
 -2.32005344452720E+00 -3.44096207365056E+00  0.00000000000000E+00
  2.32005344452722E+00 -3.44096207365056E+00  0.00000000000000E+00
  0.00000000000000E+00 -1.25897528716486E+00 -2.00000000000000E+00
  0.00000000000000E+00 -1.25897528716486E+00  2.00000000000000E+00
 -2.32005344452720E+00 -3.44096207365056E+00  2.00000000000000E+00
  2.32005344452722E+00 -3.44096207365056E+00 -2.00000000000000E+00
 Reduced coordinates (xred)
  0.00000000000000E+00 -8.39316858109907E-02  0.00000000000000E+00
 -1.54670229635147E-01 -2.29397471576704E-01  0.00000000000000E+00
  1.54670229635148E-01 -2.29397471576704E-01  0.00000000000000E+00
  0.00000000000000E+00 -8.39316858109907E-02 -1.33333333333333E-01
  0.00000000000000E+00 -8.39316858109907E-02  1.33333333333333E-01
 -1.54670229635147E-01 -2.29397471576704E-01  1.33333333333333E-01
  1.54670229635148E-01 -2.29397471576704E-01 -1.33333333333333E-01
 Cartesian forces (fcart) [Ha/bohr]; max,rms= 4.11003E-01 1.30428E-01 (free atoms)
 -0.00000000000000E+00 -8.71635936859320E-02 -0.00000000000000E+00
 -3.60338160048288E-02 -3.57849644564578E-04  1.52922716484620E-02
  3.60338160048288E-02 -3.57849644564578E-04 -1.52922716484620E-02
 -4.72265231471835E-03  6.10913726128750E-02 -4.11002735545919E-01
  4.72265231471835E-03  6.10913726128750E-02  4.11002735545919E-01
 -1.68426630910727E-02 -1.71517261253444E-02 -5.88257574853083E-03
  1.68426630910727E-02 -1.71517261253444E-02  5.88257574853083E-03
 Reduced forces (fred)
  0.00000000000000E+00  1.30745390528898E+00  0.00000000000000E+00
  5.40507240072432E-01  5.36774466846868E-03 -2.29384074726929E-01
 -5.40507240072432E-01  5.36774466846868E-03  2.29384074726929E-01
  7.08397847207753E-02 -9.16370589193125E-01  6.16504103318879E+00
 -7.08397847207753E-02 -9.16370589193125E-01 -6.16504103318879E+00
  2.52639946366091E-01  2.57275891880166E-01  8.82386362279624E-02
 -2.52639946366091E-01  2.57275891880166E-01 -8.82386362279624E-02
 Total energy (etotal) [Ha]= -3.81927125910577E+01

--- Iteration: (  2/100) Internal Cycle: (1/1)
--------------------------------------------------------------------------------

---SELF-CONSISTENT-FIELD CONVERGENCE--------------------------------------------

--- !BeginCycle
iteration_state: {dtset: 1, itime: 2, icycle: 1, }
solver: {iscf: 7, nstep: 100, nline: 4, wfoptalg: 0, }
tolerances: {tolrff: 2.00E-02, }
...

     iter   Etot(hartree)      deltaE(h)  residm     vres2    diffor    maxfor
 ETOT  1  -38.395530409360    -3.840E+01 2.101E-06 4.062E+01 2.556E-01 1.911E-01
 ETOT  2  -38.411325780305    -1.580E-02 3.102E-07 4.181E+00 1.076E-01 1.191E-01
 ETOT  3  -38.411832764624    -5.070E-04 3.569E-05 1.271E+00 2.360E-02 1.210E-01
 ETOT  4  -38.411838277875    -5.513E-06 7.410E-06 1.206E+00 1.379E-02 1.197E-01
 ETOT  5  -38.412065908655    -2.276E-04 2.936E-06 1.532E-01 1.388E-02 1.192E-01
 ETOT  6  -38.412069398380    -3.490E-06 4.229E-07 2.742E-02 1.418E-03 1.188E-01
 ETOT  7  -38.412069582590    -1.842E-07 7.028E-08 4.257E-03 2.405E-04 1.188E-01

 At SCF step    7, forces are sufficiently converged : 
  for the second time, max diff in force=  2.405E-04 is less than < tolrff=  2.000E-02 times max force

 Cartesian components of stress tensor (hartree/bohr^3)
  sigma(1 1)=  4.23689864E-04  sigma(3 2)=  0.00000000E+00
  sigma(2 2)=  4.62516094E-04  sigma(3 1)=  1.48446951E-05
  sigma(3 3)=  3.03015513E-04  sigma(2 1)=  0.00000000E+00


--- !ResultsGS
iteration_state: {dtset: 1, itime: 2, icycle: 1, }
comment   : Summary of ground state results
lattice_vectors:
- [ 15.0000000,   0.0000000,   0.0000000, ]
- [  0.0000000,  15.0000000,   0.0000000, ]
- [  0.0000000,   0.0000000,  15.0000000, ]
lattice_lengths: [  15.00000,   15.00000,   15.00000, ]
lattice_angles: [ 90.000,  90.000,  90.000, ] # degrees, (23, 13, 12)
lattice_volume:   3.3750000E+03
convergence: {deltae: -1.842E-07, res2:  4.257E-03, residm:  7.028E-08, diffor:  2.405E-04, }
etotal    :  -3.84120696E+01
entropy   :   0.00000000E+00
fermie    :  -2.13781174E-01
cartesian_stress_tensor: # hartree/bohr^3
- [  4.23689864E-04,   0.00000000E+00,   1.48446951E-05, ]
- [  0.00000000E+00,   4.62516094E-04,   0.00000000E+00, ]
- [  1.48446951E-05,   0.00000000E+00,   3.03015513E-04, ]
pressure_GPa:  -1.1663E+01
xred      :
- [  0.0000E+00,  -8.9743E-02,   0.0000E+00, Si]
- [ -1.5707E-01,  -2.2942E-01,   1.0195E-03,  O]
- [  1.5707E-01,  -2.2942E-01,  -1.0195E-03,  O]
- [ -3.1484E-04,  -7.9859E-02,  -1.6073E-01,  H]
- [  3.1484E-04,  -7.9859E-02,   1.6073E-01,  H]
- [ -1.5579E-01,  -2.3054E-01,   1.3294E-01,  H]
- [  1.5579E-01,  -2.3054E-01,  -1.3294E-01,  H]
cartesian_forces: # hartree/bohr
- [ -0.00000000E+00,  -7.66391345E-02,  -0.00000000E+00, ]
- [ -3.34542041E-02,   1.13675635E-04,   4.83589386E-03, ]
- [  3.34542041E-02,   1.13675635E-04,  -4.83589386E-03, ]
- [ -5.14581576E-03,   5.39360656E-02,  -1.18840592E-01, ]
- [  5.14581576E-03,   5.39360656E-02,   1.18840592E-01, ]
- [ -1.64760520E-02,  -1.57301740E-02,   1.90335977E-03, ]
- [  1.64760520E-02,  -1.57301740E-02,  -1.90335977E-03, ]
force_length_stats: {min:   2.28587279E-02, max:   1.30608824E-01, mean:   6.44540651E-02, }
...

 Integrated electronic density in atomic spheres:
 ------------------------------------------------
 Atom  Sphere_radius  Integrated_density
    1        2.00000          2.43760626
    2        2.00000          6.25635665
    3        2.00000          6.25635665
    4        2.00000          1.65319102
    5        2.00000          1.65319102
    6        2.00000          2.95313050
    7        2.00000          2.95313050

---OUTPUT-----------------------------------------------------------------------

 Cartesian coordinates (xcart) [bohr]
  0.00000000000000E+00 -1.34613888085079E+00  0.00000000000000E+00
 -2.35608726053203E+00 -3.44131992329512E+00  1.52922716484620E-02
  2.35608726053205E+00 -3.44131992329512E+00 -1.52922716484620E-02
 -4.72265231471835E-03 -1.19788391455199E+00 -2.41100273554592E+00
  4.72265231471835E-03 -1.19788391455199E+00  2.41100273554592E+00
 -2.33689610761827E+00 -3.45811379977590E+00  1.99411742425147E+00
  2.33689610761829E+00 -3.45811379977590E+00 -1.99411742425147E+00
 Reduced coordinates (xred)
  0.00000000000000E+00 -8.97425920567195E-02  0.00000000000000E+00
 -1.57072484035469E-01 -2.29421328219675E-01  1.01948477656413E-03
  1.57072484035470E-01 -2.29421328219675E-01 -1.01948477656413E-03
 -3.14843487647890E-04 -7.98589276367990E-02 -1.60733515703061E-01
  3.14843487647890E-04 -7.98589276367990E-02  1.60733515703061E-01
 -1.55793073841218E-01 -2.30540919985060E-01  1.32941161616765E-01
  1.55793073841220E-01 -2.30540919985060E-01 -1.32941161616765E-01
 Cartesian forces (fcart) [Ha/bohr]; max,rms= 1.18841E-01 4.54193E-02 (free atoms)
 -0.00000000000000E+00 -7.66391345016235E-02 -0.00000000000000E+00
 -3.34542041205191E-02  1.13675635256776E-04  4.83589385574865E-03
  3.34542041205191E-02  1.13675635256776E-04 -4.83589385574865E-03
 -5.14581576477572E-03  5.39360656443504E-02 -1.18840591843256E-01
  5.14581576477572E-03  5.39360656443504E-02  1.18840591843256E-01
 -1.64760519831504E-02 -1.57301740287955E-02  1.90335976885267E-03
  1.64760519831504E-02 -1.57301740287955E-02 -1.90335976885267E-03
 Reduced forces (fred)
  0.00000000000000E+00  1.14958701752435E+00  0.00000000000000E+00
  5.01813061807786E-01 -1.70513452885165E-03 -7.25384078362297E-02
 -5.01813061807786E-01 -1.70513452885165E-03  7.25384078362297E-02
  7.71872364716359E-02 -8.09040984665257E-01  1.78260887764884E+00
 -7.71872364716359E-02 -8.09040984665257E-01 -1.78260887764884E+00
  2.47140779747256E-01  2.35952610431932E-01 -2.85503965327901E-02
 -2.47140779747256E-01  2.35952610431932E-01  2.85503965327901E-02
 Total energy (etotal) [Ha]= -3.84120695825898E+01

 Difference of energy with previous step (new-old):
           Absolute (Ha)=-2.19357E-01
           Relative     =-5.72698E-03

--- Iteration: (  3/100) Internal Cycle: (1/1)
--------------------------------------------------------------------------------

---SELF-CONSISTENT-FIELD CONVERGENCE--------------------------------------------

--- !BeginCycle
iteration_state: {dtset: 1, itime: 3, icycle: 1, }
solver: {iscf: 7, nstep: 100, nline: 4, wfoptalg: 0, }
tolerances: {tolrff: 2.00E-02, }
...

     iter   Etot(hartree)      deltaE(h)  residm     vres2    diffor    maxfor
 ETOT  1  -38.446323431072    -3.845E+01 5.631E-07 4.178E+01 2.216E-01 2.982E-01
 ETOT  2  -38.462054724211    -1.573E-02 5.415E-08 3.643E+00 2.599E-01 4.557E-02
 ETOT  3  -38.462572763893    -5.180E-04 5.809E-05 1.618E+00 2.713E-02 6.544E-02
 ETOT  4  -38.462631205961    -5.844E-05 5.200E-06 6.295E-01 9.905E-03 5.553E-02
 ETOT  5  -38.462682165607    -5.096E-05 2.314E-06 1.128E-01 1.024E-02 4.530E-02
 ETOT  6  -38.462705042667    -2.288E-05 2.687E-07 2.870E-02 4.072E-03 4.937E-02
 ETOT  7  -38.462705331884    -2.892E-07 5.054E-08 3.601E-03 6.187E-04 4.875E-02
 ETOT  8  -38.462705347588    -1.570E-08 9.173E-09 4.088E-04 8.287E-05 4.876E-02

 At SCF step    8, forces are sufficiently converged : 
  for the second time, max diff in force=  8.287E-05 is less than < tolrff=  2.000E-02 times max force

 Cartesian components of stress tensor (hartree/bohr^3)
  sigma(1 1)=  4.21054184E-04  sigma(3 2)=  0.00000000E+00
  sigma(2 2)=  4.56469066E-04  sigma(3 1)=  1.45208249E-05
  sigma(3 3)=  3.99860899E-04  sigma(2 1)=  0.00000000E+00


--- !ResultsGS
iteration_state: {dtset: 1, itime: 3, icycle: 1, }
comment   : Summary of ground state results
lattice_vectors:
- [ 15.0000000,   0.0000000,   0.0000000, ]
- [  0.0000000,  15.0000000,   0.0000000, ]
- [  0.0000000,   0.0000000,  15.0000000, ]
lattice_lengths: [  15.00000,   15.00000,   15.00000, ]
lattice_angles: [ 90.000,  90.000,  90.000, ] # degrees, (23, 13, 12)
lattice_volume:   3.3750000E+03
convergence: {deltae: -1.570E-08, res2:  4.088E-04, residm:  9.173E-09, diffor:  8.287E-05, }
etotal    :  -3.84627053E+01
entropy   :   0.00000000E+00
fermie    :  -2.24386169E-01
cartesian_stress_tensor: # hartree/bohr^3
- [  4.21054184E-04,   0.00000000E+00,   1.45208249E-05, ]
- [  0.00000000E+00,   4.56469066E-04,   0.00000000E+00, ]
- [  1.45208249E-05,   0.00000000E+00,   3.99860899E-04, ]
pressure_GPa:  -1.2527E+01
xred      :
- [  0.0000E+00,  -9.7497E-02,   0.0000E+00, Si]
- [ -1.6045E-01,  -2.2941E-01,   1.5347E-03,  O]
- [  1.6045E-01,  -2.2941E-01,  -1.5347E-03,  O]
- [ -8.3249E-04,  -7.4403E-02,  -1.7349E-01,  H]
- [  8.3249E-04,  -7.4403E-02,   1.7349E-01,  H]
- [ -1.5746E-01,  -2.3213E-01,   1.3311E-01,  H]
- [  1.5746E-01,  -2.3213E-01,  -1.3311E-01,  H]
cartesian_forces: # hartree/bohr
- [ -0.00000000E+00,  -4.87623207E-02,  -0.00000000E+00, ]
- [ -3.43283750E-02,  -3.33860567E-03,   1.63516173E-03, ]
- [  3.43283750E-02,  -3.33860567E-03,  -1.63516173E-03, ]
- [ -4.52768863E-03,   4.22696591E-02,  -4.35226111E-02, ]
- [  4.52768863E-03,   4.22696591E-02,   4.35226111E-02, ]
- [ -1.63139606E-02,  -1.45498931E-02,   4.53758815E-03, ]
- [  1.63139606E-02,  -1.45498931E-02,  -4.53758815E-03, ]
force_length_stats: {min:   2.23256446E-02, max:   6.08394750E-02, mean:   4.05929600E-02, }
...

 Integrated electronic density in atomic spheres:
 ------------------------------------------------
 Atom  Sphere_radius  Integrated_density
    1        2.00000          2.30827793
    2        2.00000          6.26408918
    3        2.00000          6.26408918
    4        2.00000          1.52725301
    5        2.00000          1.52725301
    6        2.00000          2.93928832
    7        2.00000          2.93928832

---OUTPUT-----------------------------------------------------------------------

 Cartesian coordinates (xcart) [bohr]
  0.00000000000000E+00 -1.46244913285589E+00  0.00000000000000E+00
 -2.40677864127076E+00 -3.44116672599005E+00  2.30197777516652E-02
  2.40677864127078E+00 -3.44116672599005E+00 -2.30197777516652E-02
 -1.24873129501490E-02 -1.11603861340663E+00 -2.60229990500961E+00
  1.24873129501490E-02 -1.11603861340663E+00  2.60229990500961E+00
 -2.36182554702955E+00 -3.48195717222379E+00  1.99668685644812E+00
  2.36182554702957E+00 -3.48195717222379E+00 -1.99668685644812E+00
 Reduced coordinates (xred)
  0.00000000000000E+00 -9.74966088570592E-02  0.00000000000000E+00
 -1.60451909418051E-01 -2.29411115066003E-01  1.53465185011102E-03
  1.60451909418052E-01 -2.29411115066003E-01 -1.53465185011102E-03
 -8.32487530009930E-04 -7.44025742271085E-02 -1.73486660333974E-01
  8.32487530009930E-04 -7.44025742271085E-02  1.73486660333974E-01
 -1.57455036468636E-01 -2.32130478148253E-01  1.33112457096541E-01
  1.57455036468638E-01 -2.32130478148253E-01 -1.33112457096541E-01
 Cartesian forces (fcart) [Ha/bohr]; max,rms= 4.87623E-02 2.50352E-02 (free atoms)
 -0.00000000000000E+00 -4.87623206728613E-02 -0.00000000000000E+00
 -3.43283749819534E-02 -3.33860566779786E-03  1.63516172905378E-03
  3.43283749819534E-02 -3.33860566779786E-03 -1.63516172905378E-03
 -4.52768862646888E-03  4.22696591013747E-02 -4.35226110868750E-02
  4.52768862646888E-03  4.22696591013747E-02  4.35226110868750E-02
 -1.63139605839816E-02 -1.45498930971462E-02  4.53758815145710E-03
  1.63139605839816E-02 -1.45498930971462E-02 -4.53758815145710E-03
 Reduced forces (fred)
  0.00000000000000E+00  7.31434810092920E-01  0.00000000000000E+00
  5.14925624729301E-01  5.00790850169679E-02 -2.45274259358067E-02
 -5.14925624729301E-01  5.00790850169679E-02  2.45274259358067E-02
  6.79153293970331E-02 -6.34044886520621E-01  6.52839166303126E-01
 -6.79153293970331E-02 -6.34044886520621E-01 -6.52839166303126E-01
  2.44709408759724E-01  2.18248396457193E-01 -6.80638222718565E-02
 -2.44709408759724E-01  2.18248396457193E-01  6.80638222718565E-02
 Total energy (etotal) [Ha]= -3.84627053475885E+01

 Difference of energy with previous step (new-old):
           Absolute (Ha)=-5.06358E-02
           Relative     =-1.31736E-03

--- Iteration: (  4/100) Internal Cycle: (1/1)
--------------------------------------------------------------------------------

---SELF-CONSISTENT-FIELD CONVERGENCE--------------------------------------------

--- !BeginCycle
iteration_state: {dtset: 1, itime: 4, icycle: 1, }
solver: {iscf: 7, nstep: 100, nline: 4, wfoptalg: 0, }
tolerances: {tolrff: 2.00E-02, }
...

     iter   Etot(hartree)      deltaE(h)  residm     vres2    diffor    maxfor
 ETOT  1  -38.459707460763    -3.846E+01 1.836E-06 7.014E+01 2.501E-01 2.989E-01
 ETOT  2  -38.486303838796    -2.660E-02 2.027E-07 1.016E+01 2.693E-01 2.962E-02
 ETOT  3  -38.488226712361    -1.923E-03 1.329E-04 2.593E+00 4.534E-02 3.890E-02
 ETOT  4  -38.489282708500    -1.056E-03 2.118E-05 2.147E+00 2.069E-02 3.608E-02
 ETOT  5  -38.489601544225    -3.188E-04 5.223E-06 3.415E-01 2.118E-02 2.472E-02
 ETOT  6  -38.489610655633    -9.111E-06 7.417E-07 4.567E-02 1.143E-03 2.421E-02
 ETOT  7  -38.489610951610    -2.960E-07 1.425E-07 6.107E-03 4.769E-04 2.420E-02
 ETOT  8  -38.489610972914    -2.130E-08 1.642E-08 6.506E-04 7.801E-05 2.420E-02

 At SCF step    8, forces are sufficiently converged : 
  for the second time, max diff in force=  7.801E-05 is less than < tolrff=  2.000E-02 times max force

 Cartesian components of stress tensor (hartree/bohr^3)
  sigma(1 1)=  4.23662039E-04  sigma(3 2)=  0.00000000E+00
  sigma(2 2)=  4.58873888E-04  sigma(3 1)=  1.51737192E-05
  sigma(3 3)=  4.74250437E-04  sigma(2 1)=  0.00000000E+00


--- !ResultsGS
iteration_state: {dtset: 1, itime: 4, icycle: 1, }
comment   : Summary of ground state results
lattice_vectors:
- [ 15.0000000,   0.0000000,   0.0000000, ]
- [  0.0000000,  15.0000000,   0.0000000, ]
- [  0.0000000,   0.0000000,  15.0000000, ]
lattice_lengths: [  15.00000,   15.00000,   15.00000, ]
lattice_angles: [ 90.000,  90.000,  90.000, ] # degrees, (23, 13, 12)
lattice_volume:   3.3750000E+03
convergence: {deltae: -2.130E-08, res2:  6.506E-04, residm:  1.642E-08, diffor:  7.801E-05, }
etotal    :  -3.84896110E+01
entropy   :   0.00000000E+00
fermie    :  -2.37353759E-01
cartesian_stress_tensor: # hartree/bohr^3
- [  4.23662039E-04,   0.00000000E+00,   1.51737192E-05, ]
- [  0.00000000E+00,   4.58873888E-04,   0.00000000E+00, ]
- [  1.51737192E-05,   0.00000000E+00,   4.74250437E-04, ]
pressure_GPa:  -1.3306E+01
xred      :
- [  0.0000E+00,  -1.0732E-01,   0.0000E+00, Si]
- [ -1.6648E-01,  -2.2986E-01,   2.0058E-03,  O]
- [  1.6648E-01,  -2.2986E-01,  -2.0058E-03,  O]
- [ -1.6551E-03,  -6.6423E-02,  -1.8567E-01,  H]
- [  1.6551E-03,  -6.6423E-02,   1.8567E-01,  H]
- [ -1.6034E-01,  -2.3475E-01,   1.3377E-01,  H]
- [  1.6034E-01,  -2.3475E-01,  -1.3377E-01,  H]
cartesian_forces: # hartree/bohr
- [ -0.00000000E+00,  -1.48335117E-02,  -0.00000000E+00, ]
- [ -2.31756476E-02,  -3.54092229E-03,   1.61285942E-03, ]
- [  2.31756476E-02,  -3.54092229E-03,  -1.61285942E-03, ]
- [ -3.20638973E-03,   2.42004664E-02,   6.00036603E-03, ]
- [  3.20638973E-03,   2.42004664E-02,  -6.00036603E-03, ]
- [ -1.63238632E-02,  -1.32427883E-02,   4.72839543E-03, ]
- [  1.63238632E-02,  -1.32427883E-02,  -4.72839543E-03, ]
force_length_stats: {min:   1.48335117E-02, max:   2.51385740E-02, mean:   2.21715940E-02, }
...

 Integrated electronic density in atomic spheres:
 ------------------------------------------------
 Atom  Sphere_radius  Integrated_density
    1        2.00000          2.26580285
    2        2.00000          6.24150536
    3        2.00000          6.24150536
    4        2.00000          1.41465808
    5        2.00000          1.41465808
    6        2.00000          2.94719748
    7        2.00000          2.94719748

---OUTPUT-----------------------------------------------------------------------

 Cartesian coordinates (xcart) [bohr]
  0.00000000000000E+00 -1.60983441497513E+00  0.00000000000000E+00
 -2.49720031789321E+00 -3.44783894575073E+00  3.00872623362557E-02
  2.49720031789323E+00 -3.44783894575073E+00 -3.00872623362557E-02
 -2.48268175810311E-02 -9.96342616511130E-01 -2.78508873170118E+00
  2.48268175810311E-02 -9.96342616511130E-01  2.78508873170118E+00
 -2.40510489301003E+00 -3.52128830829898E+00  2.00648786115534E+00
  2.40510489301005E+00 -3.52128830829898E+00 -2.00648786115534E+00
 Reduced coordinates (xred)
  0.00000000000000E+00 -1.07322294331676E-01  0.00000000000000E+00
 -1.66480021192881E-01 -2.29855929716716E-01  2.00581748908372E-03
  1.66480021192882E-01 -2.29855929716716E-01 -2.00581748908372E-03
 -1.65512117206874E-03 -6.64228411007420E-02 -1.85672582113412E-01
  1.65512117206874E-03 -6.64228411007420E-02  1.85672582113412E-01
 -1.60340326200669E-01 -2.34752553886599E-01  1.33765857410356E-01
  1.60340326200670E-01 -2.34752553886599E-01 -1.33765857410356E-01
 Cartesian forces (fcart) [Ha/bohr]; max,rms= 2.42005E-02 1.29409E-02 (free atoms)
 -0.00000000000000E+00 -1.48335116813115E-02 -0.00000000000000E+00
 -2.31756475994370E-02 -3.54092229281890E-03  1.61285942005728E-03
  2.31756475994370E-02 -3.54092229281890E-03 -1.61285942005728E-03
 -3.20638972980528E-03  2.42004664190848E-02  6.00036602657035E-03
  3.20638972980528E-03  2.42004664190848E-02 -6.00036602657035E-03
 -1.63238631656632E-02 -1.32427882856101E-02  4.72839543418707E-03
  1.63238631656632E-02 -1.32427882856101E-02 -4.72839543418707E-03
 Reduced forces (fred)
  0.00000000000000E+00  2.22502675219673E-01  0.00000000000000E+00
  3.47634713991555E-01  5.31138343922835E-02 -2.41928913008592E-02
 -3.47634713991555E-01  5.31138343922835E-02  2.41928913008592E-02
  4.80958459470792E-02 -3.63006996286271E-01 -9.00054903985552E-02
 -4.80958459470792E-02 -3.63006996286271E-01  9.00054903985552E-02
  2.44857947484948E-01  1.98641824284151E-01 -7.09259315128061E-02
 -2.44857947484948E-01  1.98641824284151E-01  7.09259315128061E-02
 Total energy (etotal) [Ha]= -3.84896109729139E+01

 Difference of energy with previous step (new-old):
           Absolute (Ha)=-2.69056E-02
           Relative     =-6.99280E-04

--- Iteration: (  5/100) Internal Cycle: (1/1)
--------------------------------------------------------------------------------

---SELF-CONSISTENT-FIELD CONVERGENCE--------------------------------------------

--- !BeginCycle
iteration_state: {dtset: 1, itime: 5, icycle: 1, }
solver: {iscf: 7, nstep: 100, nline: 4, wfoptalg: 0, }
tolerances: {tolrff: 2.00E-02, }
...

     iter   Etot(hartree)      deltaE(h)  residm     vres2    diffor    maxfor
 ETOT  1  -38.485227699000    -3.849E+01 1.698E-07 1.944E+01 9.517E-02 1.100E-01
 ETOT  2  -38.492669277209    -7.442E-03 2.722E-07 4.890E+00 1.242E-01 3.147E-02
 ETOT  3  -38.494912138929    -2.243E-03 7.758E-05 8.964E-01 3.761E-02 2.157E-02
 ETOT  4  -38.495669839333    -7.577E-04 9.013E-06 5.073E-01 1.688E-02 1.910E-02
 ETOT  5  -38.495725464883    -5.563E-05 1.162E-06 9.012E-02 8.449E-03 1.929E-02
 ETOT  6  -38.495728148236    -2.683E-06 2.061E-07 1.141E-02 8.289E-04 1.938E-02
 ETOT  7  -38.495728213703    -6.547E-08 3.865E-08 1.571E-03 1.512E-04 1.940E-02
 ETOT  8  -38.495728217963    -4.260E-09 3.724E-09 1.529E-04 8.098E-05 1.941E-02

 At SCF step    8, forces are sufficiently converged : 
  for the second time, max diff in force=  8.098E-05 is less than < tolrff=  2.000E-02 times max force

 Cartesian components of stress tensor (hartree/bohr^3)
  sigma(1 1)=  4.35247783E-04  sigma(3 2)=  0.00000000E+00
  sigma(2 2)=  4.65109920E-04  sigma(3 1)=  1.53312392E-05
  sigma(3 3)=  4.98259836E-04  sigma(2 1)=  0.00000000E+00


--- !ResultsGS
iteration_state: {dtset: 1, itime: 5, icycle: 1, }
comment   : Summary of ground state results
lattice_vectors:
- [ 15.0000000,   0.0000000,   0.0000000, ]
- [  0.0000000,  15.0000000,   0.0000000, ]
- [  0.0000000,   0.0000000,  15.0000000, ]
lattice_lengths: [  15.00000,   15.00000,   15.00000, ]
lattice_angles: [ 90.000,  90.000,  90.000, ] # degrees, (23, 13, 12)
lattice_volume:   3.3750000E+03
convergence: {deltae: -4.260E-09, res2:  1.529E-04, residm:  3.724E-09, diffor:  8.098E-05, }
etotal    :  -3.84957282E+01
entropy   :   0.00000000E+00
fermie    :  -2.42847031E-01
cartesian_stress_tensor: # hartree/bohr^3
- [  4.35247783E-04,   0.00000000E+00,   1.53312392E-05, ]
- [  0.00000000E+00,   4.65109920E-04,   0.00000000E+00, ]
- [  1.53312392E-05,   0.00000000E+00,   4.98259836E-04, ]
pressure_GPa:  -1.3716E+01
xred      :
- [  0.0000E+00,  -1.1194E-01,   0.0000E+00, Si]
- [ -1.7048E-01,  -2.3030E-01,   2.3463E-03,  O]
- [  1.7048E-01,  -2.3030E-01,  -2.3463E-03,  O]
- [ -2.2111E-03,  -6.1617E-02,  -1.8990E-01,  H]
- [  2.2111E-03,  -6.1617E-02,   1.8990E-01,  H]
- [ -1.6276E-01,  -2.3681E-01,   1.3437E-01,  H]
- [  1.6276E-01,  -2.3681E-01,  -1.3437E-01,  H]
cartesian_forces: # hartree/bohr
- [ -0.00000000E+00,  -4.44078492E-03,  -0.00000000E+00, ]
- [ -1.22442391E-02,  -1.21223570E-03,   2.66487853E-03, ]
- [  1.22442391E-02,  -1.21223570E-03,  -2.66487853E-03, ]
- [ -2.59746145E-03,   1.58074689E-02,   1.94064965E-02, ]
- [  2.59746145E-03,   1.58074689E-02,  -1.94064965E-02, ]
- [ -1.60903976E-02,  -1.23748407E-02,   3.41689017E-03, ]
- [  1.60903976E-02,  -1.23748407E-02,  -3.41689017E-03, ]
force_length_stats: {min:   4.44078492E-03, max:   2.51641607E-02, mean:   1.73023475E-02, }
...

 Integrated electronic density in atomic spheres:
 ------------------------------------------------
 Atom  Sphere_radius  Integrated_density
    1        2.00000          2.17468443
    2        2.00000          6.24250135
    3        2.00000          6.24250135
    4        2.00000          1.35107144
    5        2.00000          1.35107144
    6        2.00000          2.91846801
    7        2.00000          2.91846801

---OUTPUT-----------------------------------------------------------------------

 Cartesian coordinates (xcart) [bohr]
  0.00000000000000E+00 -1.67910005468313E+00  0.00000000000000E+00
 -2.55725105128835E+00 -3.45442942378625E+00  3.51943725906919E-02
  2.55725105128837E+00 -3.45442942378625E+00 -3.51943725906919E-02
 -3.31659468697245E-02 -9.24261337764578E-01 -2.84852617770124E+00
  3.31659468697245E-02 -9.24261337764578E-01  2.84852617770124E+00
 -2.44137831062654E+00 -3.55214628915602E+00  2.01561897810967E+00
  2.44137831062656E+00 -3.55214628915602E+00 -2.01561897810967E+00
 Reduced coordinates (xred)
  0.00000000000000E+00 -1.11940003645542E-01  0.00000000000000E+00
 -1.70483403419223E-01 -2.30295294919083E-01  2.34629150604613E-03
  1.70483403419225E-01 -2.30295294919083E-01 -2.34629150604613E-03
 -2.21106312464830E-03 -6.16174225176385E-02 -1.89901745180083E-01
  2.21106312464830E-03 -6.16174225176385E-02  1.89901745180083E-01
 -1.62758554041769E-01 -2.36809752610401E-01  1.34374598540645E-01
  1.62758554041770E-01 -2.36809752610401E-01 -1.34374598540645E-01
 Cartesian forces (fcart) [Ha/bohr]; max,rms= 1.94065E-02 1.08026E-02 (free atoms)
 -0.00000000000000E+00 -4.44078492438729E-03 -0.00000000000000E+00
 -1.22442390604069E-02 -1.21223570066095E-03  2.66487853135450E-03
  1.22442390604069E-02 -1.21223570066095E-03 -2.66487853135450E-03
 -2.59746145109964E-03  1.58074689053606E-02  1.94064964667375E-02
  2.59746145109964E-03  1.58074689053606E-02 -1.94064964667375E-02
 -1.60903976221403E-02 -1.23748407425060E-02  3.41689016512706E-03
  1.60903976221403E-02 -1.23748407425060E-02 -3.41689016512706E-03
 Reduced forces (fred)
  0.00000000000000E+00  6.66117738658094E-02  0.00000000000000E+00
  1.83663585906104E-01  1.81835355099142E-02 -3.99731779703175E-02
 -1.83663585906104E-01  1.81835355099142E-02  3.99731779703175E-02
  3.89619217664946E-02 -2.37112033580409E-01 -2.91097447001062E-01
 -3.89619217664946E-02 -2.37112033580409E-01  2.91097447001062E-01
  2.41355964332104E-01  1.85622611137590E-01 -5.12533524769059E-02
 -2.41355964332104E-01  1.85622611137590E-01  5.12533524769059E-02
 Total energy (etotal) [Ha]= -3.84957282179634E+01

 Difference of energy with previous step (new-old):
           Absolute (Ha)=-6.11725E-03
           Relative     =-1.58920E-04

--- Iteration: (  6/100) Internal Cycle: (1/1)
--------------------------------------------------------------------------------

---SELF-CONSISTENT-FIELD CONVERGENCE--------------------------------------------

--- !BeginCycle
iteration_state: {dtset: 1, itime: 6, icycle: 1, }
solver: {iscf: 7, nstep: 100, nline: 4, wfoptalg: 0, }
tolerances: {tolrff: 2.00E-02, }
...

     iter   Etot(hartree)      deltaE(h)  residm     vres2    diffor    maxfor
 ETOT  1  -38.491323033541    -3.849E+01 6.436E-07 1.464E+01 8.599E-02 9.824E-02
 ETOT  2  -38.496774080023    -5.451E-03 4.485E-07 4.460E+00 1.201E-01 2.916E-02
 ETOT  3  -38.499562832515    -2.789E-03 7.631E-05 6.843E-01 3.696E-02 2.515E-02
 ETOT  4  -38.500168854632    -6.060E-04 6.747E-06 3.161E-01 1.383E-02 2.553E-02
 ETOT  5  -38.500200279627    -3.142E-05 7.481E-07 6.140E-02 5.940E-03 2.564E-02
 ETOT  6  -38.500202205867    -1.926E-06 1.388E-07 7.901E-03 9.443E-04 2.567E-02
 ETOT  7  -38.500202249984    -4.412E-08 2.507E-08 1.122E-03 1.133E-04 2.569E-02
 ETOT  8  -38.500202252928    -2.944E-09 2.552E-09 1.218E-04 1.154E-04 2.569E-02

 At SCF step    8, forces are sufficiently converged : 
  for the second time, max diff in force=  1.154E-04 is less than < tolrff=  2.000E-02 times max force

 Cartesian components of stress tensor (hartree/bohr^3)
  sigma(1 1)=  4.49368385E-04  sigma(3 2)=  0.00000000E+00
  sigma(2 2)=  4.71814193E-04  sigma(3 1)=  1.48411435E-05
  sigma(3 3)=  5.11165385E-04  sigma(2 1)=  0.00000000E+00


--- !ResultsGS
iteration_state: {dtset: 1, itime: 6, icycle: 1, }
comment   : Summary of ground state results
lattice_vectors:
- [ 15.0000000,   0.0000000,   0.0000000, ]
- [  0.0000000,  15.0000000,   0.0000000, ]
- [  0.0000000,   0.0000000,  15.0000000, ]
lattice_lengths: [  15.00000,   15.00000,   15.00000, ]
lattice_angles: [ 90.000,  90.000,  90.000, ] # degrees, (23, 13, 12)
lattice_volume:   3.3750000E+03
convergence: {deltae: -2.944E-09, res2:  1.218E-04, residm:  2.552E-09, diffor:  1.154E-04, }
etotal    :  -3.85002023E+01
entropy   :   0.00000000E+00
fermie    :  -2.46620328E-01
cartesian_stress_tensor: # hartree/bohr^3
- [  4.49368385E-04,   0.00000000E+00,   1.48411435E-05, ]
- [  0.00000000E+00,   4.71814193E-04,   0.00000000E+00, ]
- [  1.48411435E-05,   0.00000000E+00,   5.11165385E-04, ]
pressure_GPa:  -1.4047E+01
xred      :
- [  0.0000E+00,  -1.1550E-01,   0.0000E+00, Si]
- [ -1.7417E-01,  -2.3065E-01,   2.8709E-03,  O]
- [  1.7417E-01,  -2.3065E-01,  -2.8709E-03,  O]
- [ -2.8273E-03,  -5.6928E-02,  -1.9138E-01,  H]
- [  2.8273E-03,  -5.6928E-02,   1.9138E-01,  H]
- [ -1.6591E-01,  -2.3937E-01,   1.3507E-01,  H]
- [  1.6591E-01,  -2.3937E-01,  -1.3507E-01,  H]
cartesian_forces: # hartree/bohr
- [ -0.00000000E+00,   8.66065629E-04,  -0.00000000E+00, ]
- [ -7.61753109E-03,   9.73153473E-04,   3.14925027E-03, ]
- [  7.61753109E-03,   9.73153473E-04,  -3.14925027E-03, ]
- [ -2.26389243E-03,   9.82938235E-03,   2.56866744E-02, ]
- [  2.26389243E-03,   9.82938235E-03,  -2.56866744E-02, ]
- [ -1.53586011E-02,  -1.12355686E-02,   1.88479024E-03, ]
- [  1.53586011E-02,  -1.12355686E-02,  -1.88479024E-03, ]
force_length_stats: {min:   8.66065629E-04, max:   2.75961448E-02, mean:   1.58434165E-02, }
...

 Integrated electronic density in atomic spheres:
 ------------------------------------------------
 Atom  Sphere_radius  Integrated_density
    1        2.00000          2.14955146
    2        2.00000          6.22723199
    3        2.00000          6.22723199
    4        2.00000          1.33055240
    5        2.00000          1.33055240
    6        2.00000          2.89459080
    7        2.00000          2.89459080

---OUTPUT-----------------------------------------------------------------------

 Cartesian coordinates (xcart) [bohr]
  0.00000000000000E+00 -1.73247489890282E+00  0.00000000000000E+00
 -2.61260063754142E+00 -3.45974700523392E+00  4.30638691697070E-02
  2.61260063754144E+00 -3.45974700523392E+00 -4.30638691697070E-02
 -4.24096250854974E-02 -8.53914289281349E-01 -2.87067030336497E+00
  4.24096250854973E-02 -8.53914289281349E-01  2.87067030336497E+00
 -2.48871694802461E+00 -3.59048833408174E+00  2.02600020714141E+00
  2.48871694802463E+00 -3.59048833408174E+00 -2.02600020714141E+00
 Reduced coordinates (xred)
  0.00000000000000E+00 -1.15498326593521E-01  0.00000000000000E+00
 -1.74173375836094E-01 -2.30649800348928E-01  2.87092461131380E-03
  1.74173375836096E-01 -2.30649800348928E-01 -2.87092461131380E-03
 -2.82730833903316E-03 -5.69276192854233E-02 -1.91378020224331E-01
  2.82730833903316E-03 -5.69276192854233E-02  1.91378020224331E-01
 -1.65914463201640E-01 -2.39365888938782E-01  1.35066680476094E-01
  1.65914463201642E-01 -2.39365888938782E-01 -1.35066680476094E-01
 Cartesian forces (fcart) [Ha/bohr]; max,rms= 2.56867E-02 1.06748E-02 (free atoms)
 -0.00000000000000E+00  8.66065628937435E-04 -0.00000000000000E+00
 -7.61753109325519E-03  9.73153473076751E-04  3.14925026585072E-03
  7.61753109325519E-03  9.73153473076751E-04 -3.14925026585072E-03
 -2.26389242883739E-03  9.82938234711598E-03  2.56866743661449E-02
  2.26389242883739E-03  9.82938234711598E-03 -2.56866743661449E-02
 -1.53586010967090E-02 -1.12355686346615E-02  1.88479024079356E-03
  1.53586010967090E-02 -1.12355686346615E-02 -1.88479024079356E-03
 Reduced forces (fred)
 -0.00000000000000E+00 -1.29909844340615E-02 -0.00000000000000E+00
  1.14262966398828E-01 -1.45973020961513E-02 -4.72387539877608E-02
 -1.14262966398828E-01 -1.45973020961513E-02  4.72387539877608E-02
  3.39583864325609E-02 -1.47440735206740E-01 -3.85300115492174E-01
 -3.39583864325609E-02 -1.47440735206740E-01  3.85300115492174E-01
  2.30379016450635E-01  1.68533529519922E-01 -2.82718536119034E-02
 -2.30379016450635E-01  1.68533529519922E-01  2.82718536119034E-02
 Total energy (etotal) [Ha]= -3.85002022529281E+01

 Difference of energy with previous step (new-old):
           Absolute (Ha)=-4.47403E-03
           Relative     =-1.16215E-04

--- Iteration: (  7/100) Internal Cycle: (1/1)
--------------------------------------------------------------------------------

---SELF-CONSISTENT-FIELD CONVERGENCE--------------------------------------------

--- !BeginCycle
iteration_state: {dtset: 1, itime: 7, icycle: 1, }
solver: {iscf: 7, nstep: 100, nline: 4, wfoptalg: 0, }
tolerances: {tolrff: 2.00E-02, }
...

     iter   Etot(hartree)      deltaE(h)  residm     vres2    diffor    maxfor
 ETOT  1  -38.475672410654    -3.848E+01 5.320E-06 5.239E+01 1.698E-01 1.774E-01
 ETOT  2  -38.493577289200    -1.790E-02 2.918E-06 1.747E+01 2.321E-01 5.466E-02
 ETOT  3  -38.506227333673    -1.265E-02 2.901E-04 2.633E+00 7.454E-02 3.048E-02
 ETOT  4  -38.508544162049    -2.317E-03 2.416E-05 9.534E-01 2.307E-02 3.108E-02
 ETOT  5  -38.508630663269    -8.650E-05 2.249E-06 2.074E-01 8.975E-03 3.121E-02
 ETOT  6  -38.508637325902    -6.663E-06 6.910E-07 2.743E-02 1.856E-03 3.118E-02
 ETOT  7  -38.508637489616    -1.637E-07 5.480E-07 3.812E-03 2.241E-04 3.123E-02
 ETOT  8  -38.508637500865    -1.125E-08 4.303E-08 5.037E-04 2.002E-04 3.121E-02

 At SCF step    8, forces are sufficiently converged : 
  for the second time, max diff in force=  2.002E-04 is less than < tolrff=  2.000E-02 times max force

 Cartesian components of stress tensor (hartree/bohr^3)
  sigma(1 1)=  4.71608257E-04  sigma(3 2)=  0.00000000E+00
  sigma(2 2)=  4.85807353E-04  sigma(3 1)=  1.26820757E-05
  sigma(3 3)=  5.25108479E-04  sigma(2 1)=  0.00000000E+00


--- !ResultsGS
iteration_state: {dtset: 1, itime: 7, icycle: 1, }
comment   : Summary of ground state results
lattice_vectors:
- [ 15.0000000,   0.0000000,   0.0000000, ]
- [  0.0000000,  15.0000000,   0.0000000, ]
- [  0.0000000,   0.0000000,  15.0000000, ]
lattice_lengths: [  15.00000,   15.00000,   15.00000, ]
lattice_angles: [ 90.000,  90.000,  90.000, ] # degrees, (23, 13, 12)
lattice_volume:   3.3750000E+03
convergence: {deltae: -1.125E-08, res2:  5.037E-04, residm:  4.303E-08, diffor:  2.002E-04, }
etotal    :  -3.85086375E+01
entropy   :   0.00000000E+00
fermie    :  -2.51327559E-01
cartesian_stress_tensor: # hartree/bohr^3
- [  4.71608257E-04,   0.00000000E+00,   1.26820757E-05, ]
- [  0.00000000E+00,   4.85807353E-04,   0.00000000E+00, ]
- [  1.26820757E-05,   0.00000000E+00,   5.25108479E-04, ]
pressure_GPa:  -1.4539E+01
xred      :
- [  0.0000E+00,  -1.2140E-01,   0.0000E+00, Si]
- [ -1.8159E-01,  -2.3110E-01,   4.2082E-03,  O]
- [  1.8159E-01,  -2.3110E-01,  -4.2082E-03,  O]
- [ -4.1900E-03,  -4.7634E-02,  -1.9063E-01,  H]
- [  4.1900E-03,  -4.7634E-02,   1.9063E-01,  H]
- [ -1.7341E-01,  -2.4526E-01,   1.3648E-01,  H]
- [  1.7341E-01,  -2.4526E-01,  -1.3648E-01,  H]
cartesian_forces: # hartree/bohr
- [ -0.00000000E+00,   7.27939735E-03,  -0.00000000E+00, ]
- [ -4.80531632E-03,   4.51767920E-03,   3.34533421E-03, ]
- [  4.80531632E-03,   4.51767920E-03,  -3.34533421E-03, ]
- [ -1.91763271E-03,   4.65373000E-04,   3.12126107E-02, ]
- [  1.91763271E-03,   4.65373000E-04,  -3.12126107E-02, ]
- [ -1.32776232E-02,  -8.62275088E-03,  -1.29135356E-03, ]
- [  1.32776232E-02,  -8.62275088E-03,   1.29135356E-03, ]
force_length_stats: {min:   7.27939735E-03, max:   3.12749253E-02, mean:   1.66269795E-02, }
...

 Integrated electronic density in atomic spheres:
 ------------------------------------------------
 Atom  Sphere_radius  Integrated_density
    1        2.00000          2.01820471
    2        2.00000          6.19202987
    3        2.00000          6.19202987
    4        2.00000          1.30252220
    5        2.00000          1.30252220
    6        2.00000          2.86652167
    7        2.00000          2.86652167

---OUTPUT-----------------------------------------------------------------------

 Cartesian coordinates (xcart) [bohr]
  0.00000000000000E+00 -1.82098376538281E+00  0.00000000000000E+00
 -2.72380932583287E+00 -3.46646438803698E+00  6.31231507573983E-02
  2.72380932583289E+00 -3.46646438803698E+00 -6.31231507573983E-02
 -6.28492858600197E-02 -7.14504618347328E-01 -2.85939200895615E+00
  6.28492858600197E-02 -7.14504618347328E-01  2.85939200895615E+00
 -2.60112284729893E+00 -3.67892618897270E+00  2.04713087299072E+00
  2.60112284729895E+00 -3.67892618897270E+00 -2.04713087299072E+00
 Reduced coordinates (xred)
  0.00000000000000E+00 -1.21398917692187E-01  0.00000000000000E+00
 -1.81587288388858E-01 -2.31097625869132E-01  4.20821005049322E-03
  1.81587288388859E-01 -2.31097625869132E-01 -4.20821005049322E-03
 -4.18995239066798E-03 -4.76336412231552E-02 -1.90626133930410E-01
  4.18995239066798E-03 -4.76336412231552E-02  1.90626133930410E-01
 -1.73408189819929E-01 -2.45261745931513E-01  1.36475391532715E-01
  1.73408189819930E-01 -2.45261745931513E-01 -1.36475391532715E-01
 Cartesian forces (fcart) [Ha/bohr]; max,rms= 3.12126E-02 1.11766E-02 (free atoms)
 -0.00000000000000E+00  7.27939734513013E-03 -0.00000000000000E+00
 -4.80531632440475E-03  4.51767920401971E-03  3.34533421396699E-03
  4.80531632440475E-03  4.51767920401971E-03 -3.34533421396699E-03
 -1.91763271321664E-03  4.65373000403283E-04  3.12126107188517E-02
  1.91763271321664E-03  4.65373000403283E-04 -3.12126107188517E-02
 -1.32776231505498E-02 -8.62275087698805E-03 -1.29135356142808E-03
  1.32776231505498E-02 -8.62275087698805E-03  1.29135356142808E-03
 Reduced forces (fred)
 -0.00000000000000E+00 -1.09190960176952E-01 -0.00000000000000E+00
  7.20797448660712E-02 -6.77651880602956E-02 -5.01800132095049E-02
 -7.20797448660712E-02 -6.77651880602956E-02  5.01800132095049E-02
  2.87644906982495E-02 -6.98059500604925E-03 -4.68189160782776E-01
 -2.87644906982495E-02 -6.98059500604925E-03  4.68189160782776E-01
  1.99164347258247E-01  1.29341263154821E-01  1.93703034214211E-02
 -1.99164347258247E-01  1.29341263154821E-01 -1.93703034214211E-02
 Total energy (etotal) [Ha]= -3.85086375008648E+01

 Difference of energy with previous step (new-old):
           Absolute (Ha)=-8.43525E-03
           Relative     =-2.19072E-04

--- Iteration: (  8/100) Internal Cycle: (1/1)
--------------------------------------------------------------------------------

---SELF-CONSISTENT-FIELD CONVERGENCE--------------------------------------------

--- !BeginCycle
iteration_state: {dtset: 1, itime: 8, icycle: 1, }
solver: {iscf: 7, nstep: 100, nline: 4, wfoptalg: 0, }
tolerances: {tolrff: 2.00E-02, }
...

     iter   Etot(hartree)      deltaE(h)  residm     vres2    diffor    maxfor
 ETOT  1  -38.447325742676    -3.845E+01 3.194E-05 1.011E+02 1.926E-01 1.974E-01
 ETOT  2  -38.476429696555    -2.910E-02 6.938E-06 3.759E+01 3.175E-01 1.201E-01
 ETOT  3  -38.508340229511    -3.191E-02 6.026E-04 5.569E+00 1.100E-01 3.156E-02
 ETOT  4  -38.513169296655    -4.829E-03 4.693E-05 1.465E+00 2.662E-02 3.219E-02
 ETOT  5  -38.513287089376    -1.178E-04 4.066E-05 3.704E-01 8.983E-03 3.371E-02
 ETOT  6  -38.513298683432    -1.159E-05 8.203E-05 5.824E-02 2.419E-03 3.268E-02
 ETOT  7  -38.513299106926    -4.235E-07 1.122E-04 8.821E-03 2.485E-04 3.282E-02
 ETOT  8  -38.513299122791    -1.587E-08 1.180E-04 1.324E-03 1.867E-04 3.279E-02

 At SCF step    8, forces are sufficiently converged : 
  for the second time, max diff in force=  1.867E-04 is less than < tolrff=  2.000E-02 times max force

 Cartesian components of stress tensor (hartree/bohr^3)
  sigma(1 1)=  5.07004134E-04  sigma(3 2)=  0.00000000E+00
  sigma(2 2)=  5.04852739E-04  sigma(3 1)=  7.83250762E-06
  sigma(3 3)=  5.32124530E-04  sigma(2 1)=  0.00000000E+00


--- !ResultsGS
iteration_state: {dtset: 1, itime: 8, icycle: 1, }
comment   : Summary of ground state results
lattice_vectors:
- [ 15.0000000,   0.0000000,   0.0000000, ]
- [  0.0000000,  15.0000000,   0.0000000, ]
- [  0.0000000,   0.0000000,  15.0000000, ]
lattice_lengths: [  15.00000,   15.00000,   15.00000, ]
lattice_angles: [ 90.000,  90.000,  90.000, ] # degrees, (23, 13, 12)
lattice_volume:   3.3750000E+03
convergence: {deltae: -1.587E-08, res2:  1.324E-03, residm:  1.180E-04, diffor:  1.867E-04, }
etotal    :  -3.85132991E+01
entropy   :   0.00000000E+00
fermie    :  -2.50837947E-01
cartesian_stress_tensor: # hartree/bohr^3
- [  5.07004134E-04,   0.00000000E+00,   7.83250762E-06, ]
- [  0.00000000E+00,   5.04852739E-04,   0.00000000E+00, ]
- [  7.83250762E-06,   0.00000000E+00,   5.32124530E-04, ]
pressure_GPa:  -1.5142E+01
xred      :
- [  0.0000E+00,  -1.2812E-01,   0.0000E+00, Si]
- [ -1.9256E-01,  -2.3123E-01,   6.4488E-03,  O]
- [  1.9256E-01,  -2.3123E-01,  -6.4488E-03,  O]
- [ -6.3129E-03,  -3.4871E-02,  -1.8477E-01,  H]
- [  6.3129E-03,  -3.4871E-02,   1.8477E-01,  H]
- [ -1.8550E-01,  -2.5453E-01,   1.3831E-01,  H]
- [  1.8550E-01,  -2.5453E-01,  -1.3831E-01,  H]
cartesian_forces: # hartree/bohr
- [ -0.00000000E+00,   1.41006787E-02,  -0.00000000E+00, ]
- [  3.27882356E-02,   7.49430551E-03,   4.54538686E-03, ]
- [ -3.27882356E-02,   7.49430551E-03,  -4.54538686E-03, ]
- [ -1.72354671E-03,  -1.00126312E-02,   3.21845035E-02, ]
- [  1.72354671E-03,  -1.00126312E-02,  -3.21845035E-02, ]
- [ -9.84647398E-03,  -4.53201363E-03,  -6.23370816E-03, ]
- [  9.84647398E-03,  -4.53201363E-03,   6.23370816E-03, ]
force_length_stats: {min:   1.25040519E-02, max:   3.39395573E-02, mean:   2.49268559E-02, }
...

 Integrated electronic density in atomic spheres:
 ------------------------------------------------
 Atom  Sphere_radius  Integrated_density
    1        2.00000          1.93177098
    2        2.00000          6.13724210
    3        2.00000          6.13724210
    4        2.00000          1.28280655
    5        2.00000          1.28280655
    6        2.00000          2.82516770
    7        2.00000          2.82516770

---OUTPUT-----------------------------------------------------------------------

 Cartesian coordinates (xcart) [bohr]
  0.00000000000000E+00 -1.92174042493257E+00  0.00000000000000E+00
 -2.88841367184837E+00 -3.46849707115708E+00  9.67322410972353E-02
  2.88841367184839E+00 -3.46849707115708E+00 -9.67322410972353E-02
 -9.46938424952415E-02 -5.23060805072082E-01 -2.77151646090419E+00
  9.46938424952414E-02 -5.23060805072082E-01  2.77151646090419E+00
 -2.78251712914125E+00 -3.81795898935296E+00  2.07465118821046E+00
  2.78251712914127E+00 -3.81795898935296E+00 -2.07465118821046E+00
 Reduced coordinates (xred)
  0.00000000000000E+00 -1.28116028328838E-01  0.00000000000000E+00
 -1.92560911456558E-01 -2.31233138077139E-01  6.44881607314902E-03
  1.92560911456559E-01 -2.31233138077139E-01 -6.44881607314902E-03
 -6.31292283301610E-03 -3.48707203381388E-02 -1.84767764060279E-01
  6.31292283301609E-03 -3.48707203381388E-02  1.84767764060279E-01
 -1.85501141942750E-01 -2.54530599290197E-01  1.38310079214031E-01
  1.85501141942751E-01 -2.54530599290197E-01 -1.38310079214031E-01
 Cartesian forces (fcart) [Ha/bohr]; max,rms= 3.27882E-02 1.55739E-02 (free atoms)
 -0.00000000000000E+00  1.41006787398032E-02 -0.00000000000000E+00
  3.27882356247276E-02  7.49430550783916E-03  4.54538685991236E-03
 -3.27882356247276E-02  7.49430550783916E-03 -4.54538685991236E-03
 -1.72354671458019E-03 -1.00126312462689E-02  3.21845034970653E-02
  1.72354671458019E-03 -1.00126312462689E-02 -3.21845034970653E-02
 -9.84647397835333E-03 -4.53201363147185E-03 -6.23370815736677E-03
  9.84647397835333E-03 -4.53201363147185E-03  6.23370815736677E-03
 Reduced forces (fred)
 -0.00000000000000E+00 -2.11510181097048E-01 -0.00000000000000E+00
 -4.91823534370913E-01 -1.12414582617587E-01 -6.81808028986854E-02
  4.91823534370913E-01 -1.12414582617587E-01  6.81808028986854E-02
  2.58532007187029E-02  1.50189468694034E-01 -4.82767552455979E-01
 -2.58532007187029E-02  1.50189468694034E-01  4.82767552455979E-01
  1.47697109675300E-01  6.79802044720778E-02  9.35056223605016E-02
 -1.47697109675300E-01  6.79802044720778E-02 -9.35056223605016E-02
 Total energy (etotal) [Ha]= -3.85132991227911E+01

 Difference of energy with previous step (new-old):
           Absolute (Ha)=-4.66162E-03
           Relative     =-1.21047E-04

--- Iteration: (  9/100) Internal Cycle: (1/1)
--------------------------------------------------------------------------------

---SELF-CONSISTENT-FIELD CONVERGENCE--------------------------------------------

--- !BeginCycle
iteration_state: {dtset: 1, itime: 9, icycle: 1, }
solver: {iscf: 7, nstep: 100, nline: 4, wfoptalg: 0, }
tolerances: {tolrff: 2.00E-02, }
...

     iter   Etot(hartree)      deltaE(h)  residm     vres2    diffor    maxfor
 ETOT  1  -38.516281297268    -3.852E+01 3.838E-05 1.171E+01 5.607E-02 7.017E-02
 ETOT  2  -38.520107224223    -3.826E-03 2.430E-06 7.696E-01 7.624E-02 2.521E-02
 ETOT  3  -38.520358195754    -2.510E-04 4.089E-05 8.748E-01 2.104E-02 2.501E-02
 ETOT  4  -38.520762582471    -4.044E-04 8.059E-06 2.359E-01 8.954E-03 2.524E-02
 ETOT  5  -38.520775909697    -1.333E-05 2.551E-05 4.328E-02 2.602E-03 2.480E-02
 ETOT  6  -38.520777236393    -1.327E-06 2.160E-05 5.506E-03 8.463E-04 2.476E-02
 ETOT  7  -38.520777257795    -2.140E-08 1.003E-04 8.614E-04 1.525E-04 2.475E-02
 ETOT  8  -38.520777262962    -5.167E-09 1.085E-04 8.600E-05 1.400E-04 2.475E-02

 At SCF step    8, forces are sufficiently converged : 
  for the second time, max diff in force=  1.400E-04 is less than < tolrff=  2.000E-02 times max force

 Cartesian components of stress tensor (hartree/bohr^3)
  sigma(1 1)=  4.96163127E-04  sigma(3 2)=  0.00000000E+00
  sigma(2 2)=  4.98077401E-04  sigma(3 1)=  6.92204212E-06
  sigma(3 3)=  5.16920617E-04  sigma(2 1)=  0.00000000E+00


--- !ResultsGS
iteration_state: {dtset: 1, itime: 9, icycle: 1, }
comment   : Summary of ground state results
lattice_vectors:
- [ 15.0000000,   0.0000000,   0.0000000, ]
- [  0.0000000,  15.0000000,   0.0000000, ]
- [  0.0000000,   0.0000000,  15.0000000, ]
lattice_lengths: [  15.00000,   15.00000,   15.00000, ]
lattice_angles: [ 90.000,  90.000,  90.000, ] # degrees, (23, 13, 12)
lattice_volume:   3.3750000E+03
convergence: {deltae: -5.167E-09, res2:  8.600E-05, residm:  1.085E-04, diffor:  1.400E-04, }
etotal    :  -3.85207773E+01
entropy   :   0.00000000E+00
fermie    :  -2.51443661E-01
cartesian_stress_tensor: # hartree/bohr^3
- [  4.96163127E-04,   0.00000000E+00,   6.92204212E-06, ]
- [  0.00000000E+00,   4.98077401E-04,   0.00000000E+00, ]
- [  6.92204212E-06,   0.00000000E+00,   5.16920617E-04, ]
pressure_GPa:  -1.4820E+01
xred      :
- [  0.0000E+00,  -1.2480E-01,   0.0000E+00, Si]
- [ -1.8917E-01,  -2.3078E-01,   6.4325E-03,  O]
- [  1.8917E-01,  -2.3078E-01,  -6.4325E-03,  O]
- [ -6.1104E-03,  -3.7806E-02,  -1.8033E-01,  H]
- [  6.1104E-03,  -3.7806E-02,   1.8033E-01,  H]
- [ -1.8475E-01,  -2.5371E-01,   1.3778E-01,  H]
- [  1.8475E-01,  -2.5371E-01,  -1.3778E-01,  H]
cartesian_forces: # hartree/bohr
- [ -0.00000000E+00,   3.31911971E-03,  -0.00000000E+00, ]
- [  2.07875171E-02,   7.10371229E-03,   1.64691776E-03, ]
- [ -2.07875171E-02,   7.10371229E-03,  -1.64691776E-03, ]
- [ -2.26421766E-03,  -3.92877380E-03,   2.47521322E-02, ]
- [  2.26421766E-03,  -3.92877380E-03,  -2.47521322E-02, ]
- [ -8.95031364E-03,  -4.83449834E-03,  -3.88738672E-03, ]
- [  8.95031364E-03,  -4.83449834E-03,   3.88738672E-03, ]
force_length_stats: {min:   3.31911971E-03, max:   2.51640616E-02, mean:   1.70694464E-02, }
...

 Integrated electronic density in atomic spheres:
 ------------------------------------------------
 Atom  Sphere_radius  Integrated_density
    1        2.00000          1.89152955
    2        2.00000          6.14841808
    3        2.00000          6.14841808
    4        2.00000          1.33036001
    5        2.00000          1.33036001
    6        2.00000          2.85115863
    7        2.00000          2.85115863

---OUTPUT-----------------------------------------------------------------------

 Cartesian coordinates (xcart) [bohr]
  0.00000000000000E+00 -1.87202550790958E+00  0.00000000000000E+00
 -2.83748405930305E+00 -3.46164393726390E+00  9.64878489838983E-02
  2.83748405930307E+00 -3.46164393726390E+00 -9.64878489838983E-02
 -9.16555453518851E-02 -5.67085129632917E-01 -2.70496513406397E+00
  9.16555453518850E-02 -5.67085129632916E-01  2.70496513406397E+00
 -2.77123631783713E+00 -3.80564525719680E+00  2.06674074683927E+00
  2.77123631783715E+00 -3.80564525719680E+00 -2.06674074683927E+00
 Reduced coordinates (xred)
  0.00000000000000E+00 -1.24801700527305E-01  0.00000000000000E+00
 -1.89165603953537E-01 -2.30776262484260E-01  6.43252326559322E-03
  1.89165603953538E-01 -2.30776262484260E-01 -6.43252326559322E-03
 -6.11036969012567E-03 -3.78056753088611E-02 -1.80331008937598E-01
  6.11036969012567E-03 -3.78056753088611E-02  1.80331008937598E-01
 -1.84749087855809E-01 -2.53709683813120E-01  1.37782716455952E-01
  1.84749087855810E-01 -2.53709683813120E-01 -1.37782716455952E-01
 Cartesian forces (fcart) [Ha/bohr]; max,rms= 2.47521E-02 1.08787E-02 (free atoms)
 -0.00000000000000E+00  3.31911971326966E-03 -0.00000000000000E+00
  2.07875170809038E-02  7.10371228989277E-03  1.64691776281846E-03
 -2.07875170809038E-02  7.10371228989277E-03 -1.64691776281846E-03
 -2.26421766455054E-03 -3.92877380170128E-03  2.47521322234333E-02
  2.26421766455054E-03 -3.92877380170128E-03 -2.47521322234333E-02
 -8.95031364467827E-03 -4.83449834482632E-03 -3.88738672279043E-03
  8.95031364467827E-03 -4.83449834482632E-03  3.88738672279043E-03
 Reduced forces (fred)
 -0.00000000000000E+00 -4.97867956990449E-02 -0.00000000000000E+00
 -3.11812756213558E-01 -1.06555684348392E-01 -2.47037664422769E-02
  3.11812756213558E-01 -1.06555684348392E-01  2.47037664422769E-02
  3.39632649682582E-02  5.89316070255192E-02 -3.71281983351499E-01
 -3.39632649682582E-02  5.89316070255192E-02  3.71281983351499E-01
  1.34254704670174E-01  7.25174751723949E-02  5.83108008418564E-02
 -1.34254704670174E-01  7.25174751723949E-02 -5.83108008418564E-02
 Total energy (etotal) [Ha]= -3.85207772629624E+01

 Difference of energy with previous step (new-old):
           Absolute (Ha)=-7.47814E-03
           Relative     =-1.94151E-04

--- Iteration: ( 10/100) Internal Cycle: (1/1)
--------------------------------------------------------------------------------

---SELF-CONSISTENT-FIELD CONVERGENCE--------------------------------------------

--- !BeginCycle
iteration_state: {dtset: 1, itime: 10, icycle: 1, }
solver: {iscf: 7, nstep: 100, nline: 4, wfoptalg: 0, }
tolerances: {tolrff: 2.00E-02, }
...

     iter   Etot(hartree)      deltaE(h)  residm     vres2    diffor    maxfor
 ETOT  1  -38.520115047740    -3.852E+01 1.414E-04 2.131E+01 2.646E-02 3.791E-02
 ETOT  2  -38.526829100321    -6.714E-03 3.240E-05 1.671E+00 7.062E-02 4.462E-02
 ETOT  3  -38.527519647997    -6.905E-04 4.863E-05 2.009E+00 3.275E-02 1.188E-02
 ETOT  4  -38.528504939666    -9.853E-04 1.632E-05 4.966E-01 1.238E-02 2.426E-02
 ETOT  5  -38.528526937700    -2.200E-05 1.742E-05 8.549E-02 2.761E-03 2.552E-02
 ETOT  6  -38.528529298081    -2.360E-06 7.745E-06 1.319E-02 1.089E-03 2.613E-02
 ETOT  7  -38.528529372940    -7.486E-08 8.049E-06 1.908E-03 2.205E-04 2.625E-02

 Cartesian components of stress tensor (hartree/bohr^3)
  sigma(1 1)=  4.90371158E-04  sigma(3 2)=  0.00000000E+00
  sigma(2 2)=  4.85920006E-04  sigma(3 1)=  1.04169049E-06
  sigma(3 3)=  4.68700894E-04  sigma(2 1)=  0.00000000E+00


--- !ResultsGS
iteration_state: {dtset: 1, itime: 10, icycle: 1, }
comment   : Summary of ground state results
lattice_vectors:
- [ 15.0000000,   0.0000000,   0.0000000, ]
- [  0.0000000,  15.0000000,   0.0000000, ]
- [  0.0000000,   0.0000000,  15.0000000, ]
lattice_lengths: [  15.00000,   15.00000,   15.00000, ]
lattice_angles: [ 90.000,  90.000,  90.000, ] # degrees, (23, 13, 12)
lattice_volume:   3.3750000E+03
convergence: {deltae: -7.486E-08, res2:  1.908E-03, residm:  8.049E-06, diffor:  2.205E-04, }
etotal    :  -3.85285294E+01
entropy   :   0.00000000E+00
fermie    :  -2.49090971E-01
cartesian_stress_tensor: # hartree/bohr^3
- [  4.90371158E-04,   0.00000000E+00,   1.04169049E-06, ]
- [  0.00000000E+00,   4.85920006E-04,   0.00000000E+00, ]
- [  1.04169049E-06,   0.00000000E+00,   4.68700894E-04, ]
pressure_GPa:  -1.4171E+01
xred      :
- [  0.0000E+00,  -1.2082E-01,   0.0000E+00, Si]
- [ -1.8586E-01,  -2.2917E-01,   7.5879E-03,  O]
- [  1.8586E-01,  -2.2917E-01,  -7.5879E-03,  O]
- [ -7.0990E-03,  -3.7552E-02,  -1.6372E-01,  H]
- [  7.0990E-03,  -3.7552E-02,   1.6372E-01,  H]
- [ -1.9070E-01,  -2.5756E-01,   1.3743E-01,  H]
- [  1.9070E-01,  -2.5756E-01,  -1.3743E-01,  H]
cartesian_forces: # hartree/bohr
- [ -0.00000000E+00,  -2.62485616E-02,  -0.00000000E+00, ]
- [  5.02052875E-03,   2.91605852E-03,   2.66926224E-05, ]
- [ -5.02052875E-03,   2.91605852E-03,  -2.66926224E-05, ]
- [ -4.30000878E-03,   1.20395296E-02,  -7.92534072E-03, ]
- [  4.30000878E-03,   1.20395296E-02,   7.92534072E-03, ]
- [ -4.43663377E-03,  -1.83130733E-03,  -4.63095348E-03, ]
- [  4.43663377E-03,  -1.83130733E-03,   4.63095348E-03, ]
force_length_stats: {min:   5.80601573E-03, max:   2.62485616E-02, mean:   1.16118626E-02, }
...

 Integrated electronic density in atomic spheres:
 ------------------------------------------------
 Atom  Sphere_radius  Integrated_density
    1        2.00000          2.09547616
    2        2.00000          6.18065911
    3        2.00000          6.18065911
    4        2.00000          1.45361599
    5        2.00000          1.45361599
    6        2.00000          2.81889213
    7        2.00000          2.81889213

---OUTPUT-----------------------------------------------------------------------

 Cartesian coordinates (xcart) [bohr]
  0.00000000000000E+00 -1.81225352126021E+00  0.00000000000000E+00
 -2.78791137739984E+00 -3.43758828332272E+00  1.13817933516465E-01
  2.78791137739986E+00 -3.43758828332272E+00 -1.13817933516465E-01
 -1.06485742904160E-01 -5.63276730541298E-01 -2.45573096626055E+00
  1.06485742904160E-01 -5.63276730541298E-01  2.45573096626055E+00
 -2.86055664844105E+00 -3.86339530355428E+00  2.06138495665569E+00
  2.86055664844107E+00 -3.86339530355428E+00 -2.06138495665569E+00
 Reduced coordinates (xred)
  0.00000000000000E+00 -1.20816901417347E-01  0.00000000000000E+00
 -1.85860758493323E-01 -2.29172552221515E-01  7.58786223443103E-03
  1.85860758493324E-01 -2.29172552221515E-01 -7.58786223443103E-03
 -7.09904952694399E-03 -3.75517820360865E-02 -1.63715397750703E-01
  7.09904952694398E-03 -3.75517820360865E-02  1.63715397750703E-01
 -1.90703776562737E-01 -2.57559686903619E-01  1.37425663777046E-01
  1.90703776562738E-01 -2.57559686903619E-01 -1.37425663777046E-01
 Cartesian forces (fcart) [Ha/bohr]; max,rms= 2.62486E-02 7.86153E-03 (free atoms)
 -0.00000000000000E+00 -2.62485616305629E-02 -0.00000000000000E+00
  5.02052875066170E-03  2.91605851629210E-03  2.66926223952606E-05
 -5.02052875066170E-03  2.91605851629210E-03 -2.66926223952606E-05
 -4.30000877787480E-03  1.20395296286029E-02 -7.92534071718275E-03
  4.30000877787480E-03  1.20395296286029E-02  7.92534071718275E-03
 -4.43663377474951E-03 -1.83130732961360E-03 -4.63095347998044E-03
  4.43663377474951E-03 -1.83130732961360E-03  4.63095347998044E-03
 Reduced forces (fred)
  0.00000000000000E+00  3.93728424458444E-01  0.00000000000000E+00
 -7.53079312599255E-02 -4.37408777443816E-02 -4.00389335928908E-04
  7.53079312599255E-02 -4.37408777443816E-02  4.00389335928908E-04
  6.45001316681220E-02 -1.80592944429044E-01  1.18880110757741E-01
 -6.45001316681220E-02 -1.80592944429044E-01 -1.18880110757741E-01
  6.65495066212427E-02  2.74696099442040E-02  6.94643021997066E-02
 -6.65495066212427E-02  2.74696099442040E-02 -6.94643021997066E-02
 Total energy (etotal) [Ha]= -3.85285293729405E+01

 Difference of energy with previous step (new-old):
           Absolute (Ha)=-7.75211E-03
           Relative     =-2.01225E-04

--- Iteration: ( 11/100) Internal Cycle: (1/1)
--------------------------------------------------------------------------------

---SELF-CONSISTENT-FIELD CONVERGENCE--------------------------------------------

--- !BeginCycle
iteration_state: {dtset: 1, itime: 11, icycle: 1, }
solver: {iscf: 7, nstep: 100, nline: 4, wfoptalg: 0, }
tolerances: {tolrff: 2.00E-02, }
...

     iter   Etot(hartree)      deltaE(h)  residm     vres2    diffor    maxfor
 ETOT  1  -38.527123768874    -3.853E+01 2.357E-05 6.784E+00 6.158E-02 8.783E-02
 ETOT  2  -38.529523780244    -2.400E-03 1.122E-06 1.507E+00 6.619E-02 2.445E-02
 ETOT  3  -38.530193376883    -6.696E-04 2.504E-05 3.818E-01 2.128E-02 9.663E-03
 ETOT  4  -38.530460810944    -2.674E-04 2.957E-06 1.785E-01 7.124E-03 1.679E-02
 ETOT  5  -38.530478385867    -1.757E-05 1.146E-06 3.185E-02 5.165E-03 1.162E-02

 Cartesian components of stress tensor (hartree/bohr^3)
  sigma(1 1)=  4.91467145E-04  sigma(3 2)=  0.00000000E+00
  sigma(2 2)=  4.90359785E-04  sigma(3 1)=  7.67703071E-07
  sigma(3 3)=  4.80589241E-04  sigma(2 1)=  0.00000000E+00


 scprqt:  WARNING -
  nstep=  100 was not enough SCF cycles to converge;
  maximum force difference=  5.165E-03 exceeds tolrff*maxfor=  2.324E-04


--- !ResultsGS
iteration_state: {dtset: 1, itime: 11, icycle: 1, }
comment   : Summary of ground state results
lattice_vectors:
- [ 15.0000000,   0.0000000,   0.0000000, ]
- [  0.0000000,  15.0000000,   0.0000000, ]
- [  0.0000000,   0.0000000,  15.0000000, ]
lattice_lengths: [  15.00000,   15.00000,   15.00000, ]
lattice_angles: [ 90.000,  90.000,  90.000, ] # degrees, (23, 13, 12)
lattice_volume:   3.3750000E+03
convergence: {deltae: -1.757E-05, res2:  3.185E-02, residm:  1.146E-06, diffor:  5.165E-03, }
etotal    :  -3.85304784E+01
entropy   :   0.00000000E+00
fermie    :  -2.50930095E-01
cartesian_stress_tensor: # hartree/bohr^3
- [  4.91467145E-04,   0.00000000E+00,   7.67703071E-07, ]
- [  0.00000000E+00,   4.90359785E-04,   0.00000000E+00, ]
- [  7.67703071E-07,   0.00000000E+00,   4.80589241E-04, ]
pressure_GPa:  -1.4342E+01
xred      :
- [  0.0000E+00,  -1.2394E-01,   0.0000E+00, Si]
- [ -1.8756E-01,  -2.2907E-01,   8.0984E-03,  O]
- [  1.8756E-01,  -2.2907E-01,  -8.0984E-03,  O]
- [ -7.7569E-03,  -3.4175E-02,  -1.6404E-01,  H]
- [  7.7569E-03,  -3.4175E-02,   1.6404E-01,  H]
- [ -1.9330E-01,  -2.5947E-01,   1.3748E-01,  H]
- [  1.9330E-01,  -2.5947E-01,  -1.3748E-01,  H]
cartesian_forces: # hartree/bohr
- [ -0.00000000E+00,  -1.16222616E-02,  -0.00000000E+00, ]
- [  9.71107132E-03,   9.31978674E-04,  -5.25800790E-05, ]
- [ -9.71107132E-03,   9.31978674E-04,   5.25800790E-05, ]
- [ -4.01281399E-03,   6.07317952E-03,  -5.84666606E-04, ]
- [  4.01281399E-03,   6.07317952E-03,   5.84666606E-04, ]
- [ -3.77133609E-03,  -1.19402740E-03,  -4.69495542E-03, ]
- [  3.77133609E-03,  -1.19402740E-03,   4.69495542E-03, ]
force_length_stats: {min:   6.13932274E-03, max:   1.16222616E-02, mean:   8.28825403E-03, }
...

 Integrated electronic density in atomic spheres:
 ------------------------------------------------
 Atom  Sphere_radius  Integrated_density
    1        2.00000          2.03033688
    2        2.00000          6.16981258
    3        2.00000          6.16981258
    4        2.00000          1.43019069
    5        2.00000          1.43019069
    6        2.00000          2.82051607
    7        2.00000          2.82051607

---OUTPUT-----------------------------------------------------------------------

 Cartesian coordinates (xcart) [bohr]
  0.00000000000000E+00 -1.85916399834974E+00  0.00000000000000E+00
 -2.81345682365826E+00 -3.43606873682618E+00  1.21476648109498E-01
  2.81345682365828E+00 -3.43606873682618E+00 -1.21476648109498E-01
 -1.16353490623046E-01 -5.12631346725498E-01 -2.46063414129238E+00
  1.16353490623046E-01 -5.12631346725498E-01  2.46063414129238E+00
 -2.89953945819035E+00 -3.89210499532185E+00  2.06219269629366E+00
  2.89953945819037E+00 -3.89210499532185E+00 -2.06219269629366E+00
 Reduced coordinates (xred)
  0.00000000000000E+00 -1.23944266556649E-01  0.00000000000000E+00
 -1.87563788243884E-01 -2.29071249121745E-01  8.09844320729989E-03
  1.87563788243886E-01 -2.29071249121745E-01 -8.09844320729989E-03
 -7.75689937486976E-03 -3.41754231150332E-02 -1.64042276086159E-01
  7.75689937486976E-03 -3.41754231150332E-02  1.64042276086159E-01
 -1.93302630546023E-01 -2.59473666354790E-01  1.37479513086244E-01
  1.93302630546025E-01 -2.59473666354790E-01 -1.37479513086244E-01
 Cartesian forces (fcart) [Ha/bohr]; max,rms= 1.16223E-02 4.91581E-03 (free atoms)
 -0.00000000000000E+00 -1.16222616057901E-02 -0.00000000000000E+00
  9.71107131986977E-03  9.31978674315461E-04 -5.25800790168315E-05
 -9.71107131986977E-03  9.31978674315461E-04  5.25800790168315E-05
 -4.01281398979075E-03  6.07317952394549E-03 -5.84666605912247E-04
  4.01281398979075E-03  6.07317952394549E-03  5.84666605912247E-04
 -3.77133609374762E-03 -1.19402739536591E-03 -4.69495542109657E-03
  3.77133609374762E-03 -1.19402739536591E-03  4.69495542109657E-03
 Reduced forces (fred)
  0.00000000000000E+00  1.74333924086851E-01  0.00000000000000E+00
 -1.45666069798046E-01 -1.39796801147319E-02  7.88701185252472E-04
  1.45666069798046E-01 -1.39796801147319E-02 -7.88701185252472E-04
  6.01922098468612E-02 -9.10976928591823E-02  8.76999908868370E-03
 -6.01922098468612E-02 -9.10976928591823E-02 -8.76999908868370E-03
  5.65700414062144E-02  1.79104109304886E-02  7.04243313164485E-02
 -5.65700414062144E-02  1.79104109304886E-02 -7.04243313164485E-02
 Total energy (etotal) [Ha]= -3.85304783858671E+01

 Difference of energy with previous step (new-old):
           Absolute (Ha)=-1.94901E-03
           Relative     =-5.05849E-05

--- Iteration: ( 12/100) Internal Cycle: (1/1)
--------------------------------------------------------------------------------

---SELF-CONSISTENT-FIELD CONVERGENCE--------------------------------------------

--- !BeginCycle
iteration_state: {dtset: 1, itime: 12, icycle: 1, }
solver: {iscf: 7, nstep: 100, nline: 4, wfoptalg: 0, }
tolerances: {tolrff: 2.00E-02, }
...

     iter   Etot(hartree)      deltaE(h)  residm     vres2    diffor    maxfor
 ETOT  1  -38.528451616893    -3.853E+01 2.564E-06 8.219E+00 8.646E-02 9.808E-02
 ETOT  2  -38.531272032864    -2.820E-03 9.978E-06 1.075E+00 9.642E-02 1.648E-02
 ETOT  3  -38.531437526410    -1.655E-04 4.565E-05 4.293E-01 1.431E-02 7.381E-03
 ETOT  4  -38.531636487545    -1.990E-04 3.458E-05 2.090E-01 6.600E-03 8.771E-03
 ETOT  5  -38.531659781285    -2.329E-05 1.086E-04 3.901E-02 6.465E-03 8.027E-03

 Cartesian components of stress tensor (hartree/bohr^3)
  sigma(1 1)=  4.88732104E-04  sigma(3 2)=  0.00000000E+00
  sigma(2 2)=  4.92738204E-04  sigma(3 1)= -5.59136095E-07
  sigma(3 3)=  4.83927302E-04  sigma(2 1)=  0.00000000E+00


 scprqt:  WARNING -
  nstep=  100 was not enough SCF cycles to converge;
  maximum force difference=  6.465E-03 exceeds tolrff*maxfor=  1.605E-04


--- !ResultsGS
iteration_state: {dtset: 1, itime: 12, icycle: 1, }
comment   : Summary of ground state results
lattice_vectors:
- [ 15.0000000,   0.0000000,   0.0000000, ]
- [  0.0000000,  15.0000000,   0.0000000, ]
- [  0.0000000,   0.0000000,  15.0000000, ]
lattice_lengths: [  15.00000,   15.00000,   15.00000, ]
lattice_angles: [ 90.000,  90.000,  90.000, ] # degrees, (23, 13, 12)
lattice_volume:   3.3750000E+03
convergence: {deltae: -2.329E-05, res2:  3.901E-02, residm:  1.086E-04, diffor:  6.465E-03, }
etotal    :  -3.85316598E+01
entropy   :   0.00000000E+00
fermie    :  -2.52212768E-01
cartesian_stress_tensor: # hartree/bohr^3
- [  4.88732104E-04,   0.00000000E+00,  -5.59136095E-07, ]
- [  0.00000000E+00,   4.92738204E-04,   0.00000000E+00, ]
- [ -5.59136095E-07,   0.00000000E+00,   4.83927302E-04, ]
pressure_GPa:  -1.4371E+01
xred      :
- [  0.0000E+00,  -1.2724E-01,   0.0000E+00, Si]
- [ -1.8830E-01,  -2.2867E-01,   8.9527E-03,  O]
- [  1.8830E-01,  -2.2867E-01,  -8.9527E-03,  O]
- [ -9.0366E-03,  -2.9723E-02,  -1.6083E-01,  H]
- [  9.0366E-03,  -2.9723E-02,   1.6083E-01,  H]
- [ -1.9795E-01,  -2.6268E-01,   1.3717E-01,  H]
- [  1.9795E-01,  -2.6268E-01,  -1.3717E-01,  H]
cartesian_forces: # hartree/bohr
- [ -0.00000000E+00,   2.39120206E-03,  -0.00000000E+00, ]
- [  8.02727128E-03,  -3.40417371E-03,   8.12574839E-05, ]
- [ -8.02727128E-03,  -3.40417371E-03,  -8.12574839E-05, ]
- [ -4.11901562E-03,   2.12233207E-03,   3.42149846E-04, ]
- [  4.11901562E-03,   2.12233207E-03,  -3.42149846E-04, ]
- [ -1.87517547E-03,   8.62406075E-05,  -5.03203326E-03, ]
- [  1.87517547E-03,   8.62406075E-05,   5.03203326E-03, ]
force_length_stats: {min:   2.39120206E-03, max:   8.71963793E-03, mean:   5.69492903E-03, }
...

 Integrated electronic density in atomic spheres:
 ------------------------------------------------
 Atom  Sphere_radius  Integrated_density
    1        2.00000          2.06692393
    2        2.00000          6.18473441
    3        2.00000          6.18473441
    4        2.00000          1.41948276
    5        2.00000          1.41948276
    6        2.00000          2.85156720
    7        2.00000          2.85156720

---OUTPUT-----------------------------------------------------------------------

 Cartesian coordinates (xcart) [bohr]
  0.00000000000000E+00 -1.90853727585660E+00  0.00000000000000E+00
 -2.82451905526710E+00 -3.43011747127665E+00  1.34290524937319E-01
  2.82451905526712E+00 -3.43011747127665E+00 -1.34290524937319E-01
 -1.35548390742826E-01 -4.45837583895217E-01 -2.41248726165408E+00
  1.35548390742825E-01 -4.45837583895217E-01  2.41248726165408E+00
 -2.96925663163696E+00 -3.94016338494823E+00  2.05748206953342E+00
  2.96925663163698E+00 -3.94016338494823E+00 -2.05748206953342E+00
 Reduced coordinates (xred)
  0.00000000000000E+00 -1.27235818390440E-01  0.00000000000000E+00
 -1.88301270351140E-01 -2.28674498085110E-01  8.95270166248793E-03
  1.88301270351141E-01 -2.28674498085110E-01 -8.95270166248793E-03
 -9.03655938285503E-03 -2.97225055930145E-02 -1.60832484110272E-01
  9.03655938285502E-03 -2.97225055930144E-02  1.60832484110272E-01
 -1.97950442109131E-01 -2.62677558996549E-01  1.37165471302228E-01
  1.97950442109132E-01 -2.62677558996549E-01 -1.37165471302228E-01
 Cartesian forces (fcart) [Ha/bohr]; max,rms= 8.02727E-03 3.50949E-03 (free atoms)
 -0.00000000000000E+00  2.39120206483496E-03 -0.00000000000000E+00
  8.02727128260478E-03 -3.40417371421189E-03  8.12574838790364E-05
 -8.02727128260478E-03 -3.40417371421189E-03 -8.12574838790364E-05
 -4.11901562371178E-03  2.12233207432881E-03  3.42149846146312E-04
  4.11901562371178E-03  2.12233207432881E-03 -3.42149846146312E-04
 -1.87517547044739E-03  8.62406074655995E-05 -5.03203325632907E-03
  1.87517547044739E-03  8.62406074655995E-05  5.03203325632907E-03
 Reduced forces (fred)
[...]
- [  6.51526972E-03,   6.95969890E-03,   4.70003063E-03, ]
- [ -6.51526972E-03,   6.95969890E-03,  -4.70003063E-03, ]
- [ -1.47698302E-03,   7.26871380E-03,  -2.11256627E-03, ]
- [  1.47698302E-03,   7.26871380E-03,   2.11256627E-03, ]
force_length_stats: {min:   7.71223802E-03, max:   2.22484705E-02, mean:   1.36437283E-02, }
...

 Integrated electronic density in atomic spheres:
 ------------------------------------------------
 Atom  Sphere_radius  Integrated_density
    1        2.00000          1.34709449
    2        2.00000          5.37548096
    3        2.00000          5.37548096
    4        2.00000          0.64453962
    5        2.00000          0.64453962
    6        2.00000          0.63841459
    7        2.00000          0.63841459

---OUTPUT-----------------------------------------------------------------------

 Cartesian coordinates (xcart) [bohr]
  0.00000000000000E+00 -9.05226849471887E+00  0.00000000000000E+00
 -7.83552556217370E+00 -1.57302688885904E-01  4.08962479235263E+00
  7.83552556217370E+00 -1.57302688885904E-01 -4.08962479235263E+00
  2.81428551019258E+00  1.89350564010812E+00 -2.78494461993553E+00
 -2.81428551019258E+00  1.89350564010812E+00  2.78494461993553E+00
 -5.21767708925606E+00 -5.98045578191072E+00  3.27801236886896E+00
  5.21767708925606E+00 -5.98045578191072E+00 -3.27801236886896E+00
 Reduced coordinates (xred)
  0.00000000000000E+00 -6.03484566314592E-01  0.00000000000000E+00
 -5.22368370811580E-01 -1.04868459257270E-02  2.72641652823508E-01
  5.22368370811580E-01 -1.04868459257270E-02 -2.72641652823508E-01
  1.87619034012839E-01  1.26233709340541E-01 -1.85662974662369E-01
 -1.87619034012839E-01  1.26233709340541E-01  1.85662974662369E-01
 -3.47845139283737E-01 -3.98697052127381E-01  2.18534157924597E-01
  3.47845139283737E-01 -3.98697052127381E-01 -2.18534157924597E-01
 Cartesian forces (fcart) [Ha/bohr]; max,rms= 2.22485E-02 8.47622E-03 (free atoms)
 -0.00000000000000E+00 -2.22484705273091E-02 -0.00000000000000E+00
  1.77656196103650E-02 -3.10417742693918E-03 -3.02999954016897E-03
 -1.77656196103650E-02 -3.10417742693918E-03  3.02999954016897E-03
  6.51526971790847E-03  6.95969889528025E-03  4.70003063269546E-03
 -6.51526971790847E-03  6.95969889528025E-03 -4.70003063269546E-03
 -1.47698302306852E-03  7.26871379531351E-03 -2.11256627184365E-03
  1.47698302306852E-03  7.26871379531351E-03  2.11256627184365E-03
 Reduced forces (fred)
  0.00000000000000E+00  3.33727057909637E-01  0.00000000000000E+00
 -2.66484294155475E-01  4.65626614040878E-02  4.54499931025345E-02
  2.66484294155475E-01  4.65626614040878E-02 -4.54499931025345E-02
 -9.77290457686270E-02 -1.04395483429204E-01 -7.05004594904319E-02
  9.77290457686270E-02 -1.04395483429204E-01  7.05004594904319E-02
  2.21547453460278E-02 -1.09030706929703E-01  3.16884940776547E-02
 -2.21547453460278E-02 -1.09030706929703E-01 -3.16884940776547E-02
 Total energy (etotal) [Ha]= -3.74155610754239E+01

 Difference of energy with previous step (new-old):
           Absolute (Ha)=-1.82064E+00
           Relative     =-4.98735E-02

--- Iteration: ( 41/100) Internal Cycle: (1/1)
--------------------------------------------------------------------------------

---SELF-CONSISTENT-FIELD CONVERGENCE--------------------------------------------

--- !BeginCycle
iteration_state: {dtset: 1, itime: 41, icycle: 1, }
solver: {iscf: 7, nstep: 100, nline: 4, wfoptalg: 0, }
tolerances: {tolrff: 2.00E-02, }
...

     iter   Etot(hartree)      deltaE(h)  residm     vres2    diffor    maxfor
 ETOT  1  -30.816671432710    -3.082E+01 1.906E-05 1.878E+04 1.318E-01 1.348E-01
 ETOT  2  -31.600980614557    -7.843E-01 1.448E-03 1.619E+04 1.255E-01 7.259E-02
 ETOT  3  -34.943793655852    -3.343E+00 8.841E-03 7.660E+03 2.833E-02 5.118E-02
 ETOT  4  -35.766167318665    -8.224E-01 8.198E-04 4.632E+03 2.071E-02 5.493E-02

 Cartesian components of stress tensor (hartree/bohr^3)
  sigma(1 1)=  3.72167438E-05  sigma(3 2)=  0.00000000E+00
  sigma(2 2)=  1.26192144E-04  sigma(3 1)=  2.21347198E-05
  sigma(3 3)= -8.47846174E-05  sigma(2 1)=  0.00000000E+00


 scprqt:  WARNING -
  nstep=  100 was not enough SCF cycles to converge;
  maximum force difference=  2.071E-02 exceeds tolrff*maxfor=  1.099E-03


--- !ResultsGS
iteration_state: {dtset: 1, itime: 41, icycle: 1, }
comment   : Summary of ground state results
lattice_vectors:
- [ 15.0000000,   0.0000000,   0.0000000, ]
- [  0.0000000,  15.0000000,   0.0000000, ]
- [  0.0000000,   0.0000000,  15.0000000, ]
lattice_lengths: [  15.00000,   15.00000,   15.00000, ]
lattice_angles: [ 90.000,  90.000,  90.000, ] # degrees, (23, 13, 12)
lattice_volume:   3.3750000E+03
convergence: {deltae: -8.224E-01, res2:  4.632E+03, residm:  8.198E-04, diffor:  2.071E-02, }
etotal    :  -3.57661673E+01
entropy   :   0.00000000E+00
fermie    :  -1.82440709E-01
cartesian_stress_tensor: # hartree/bohr^3
- [  3.72167438E-05,   0.00000000E+00,   2.21347198E-05, ]
- [  0.00000000E+00,   1.26192144E-04,   0.00000000E+00, ]
- [  2.21347198E-05,   0.00000000E+00,  -8.47846174E-05, ]
pressure_GPa:  -7.7107E-01
xred      :
- [  0.0000E+00,  -6.1655E-01,   0.0000E+00, Si]
- [ -5.3171E-01,  -4.8668E-03,   2.8080E-01,  O]
- [  5.3171E-01,  -4.8668E-03,  -2.8080E-01,  O]
- [  1.9444E-01,   1.2916E-01,  -1.9248E-01,  H]
- [ -1.9444E-01,   1.2916E-01,   1.9248E-01,  H]
- [ -3.4936E-01,  -4.0071E-01,   2.2177E-01,  H]
- [  3.4936E-01,  -4.0071E-01,  -2.2177E-01,  H]
cartesian_forces: # hartree/bohr
- [ -0.00000000E+00,  -2.35513242E-02,  -0.00000000E+00, ]
- [  9.31166492E-03,   6.67300775E-03,  -3.91284061E-02, ]
- [ -9.31166492E-03,   6.67300775E-03,   3.91284061E-02, ]
- [  5.49341117E-02,  -2.77617642E-02,  -2.28404144E-02, ]
- [ -5.49341117E-02,  -2.77617642E-02,   2.28404144E-02, ]
- [ -2.59873311E-02,   3.28644185E-02,   1.55652181E-02, ]
- [  2.59873311E-02,   3.28644185E-02,  -1.55652181E-02, ]
force_length_stats: {min:   2.35513242E-02, max:   6.56517837E-02, mean:   4.65411048E-02, }
...

 Integrated electronic density in atomic spheres:
 ------------------------------------------------
 Atom  Sphere_radius  Integrated_density
    1        2.00000          0.98592014
    2        2.00000          6.56352271
    3        2.00000          6.56352271
    4        2.00000          0.44049951
    5        2.00000          0.44049951
    6        2.00000          0.21015092
    7        2.00000          0.21015092

---OUTPUT-----------------------------------------------------------------------

 Cartesian coordinates (xcart) [bohr]
  0.00000000000000E+00 -9.24822732786435E+00  0.00000000000000E+00
 -7.97558860497411E+00 -7.30025625475982E-02  4.21195146253915E+00
  7.97558860497411E+00 -7.30025625475984E-02 -4.21195146253915E+00
  2.91660774757108E+00  1.93740769660635E+00 -2.88719206218702E+00
 -2.91660774757108E+00  1.93740769660635E+00  2.88719206218702E+00
 -5.24044626704127E+00 -6.01067854817450E+00  3.32656294583742E+00
  5.24044626704127E+00 -6.01067854817450E+00 -3.32656294583742E+00
 Reduced coordinates (xred)
  0.00000000000000E+00 -6.16548488524290E-01  0.00000000000000E+00
 -5.31705906998274E-01 -4.86683750317321E-03  2.80796764169277E-01
  5.31705906998274E-01 -4.86683750317323E-03 -2.80796764169277E-01
  1.94440516504739E-01  1.29160513107090E-01 -1.92479470812468E-01
 -1.94440516504739E-01  1.29160513107090E-01  1.92479470812468E-01
 -3.49363084469418E-01 -4.00711903211633E-01  2.21770863055828E-01
  3.49363084469418E-01 -4.00711903211634E-01 -2.21770863055828E-01
 Cartesian forces (fcart) [Ha/bohr]; max,rms= 5.49341E-02 2.80263E-02 (free atoms)
 -0.00000000000000E+00 -2.35513242040952E-02 -0.00000000000000E+00
  9.31166492499805E-03  6.67300775445672E-03 -3.91284061110081E-02
 -9.31166492499805E-03  6.67300775445672E-03  3.91284061110081E-02
  5.49341116574513E-02 -2.77617642007702E-02 -2.28404144381965E-02
 -5.49341116574513E-02 -2.77617642007702E-02  2.28404144381965E-02
 -2.59873311038918E-02  3.28644185483610E-02  1.55652181162091E-02
  2.59873311038918E-02  3.28644185483610E-02 -1.55652181162091E-02
 Reduced forces (fred)
  0.00000000000000E+00  3.53269863061427E-01  0.00000000000000E+00
 -1.39674973874971E-01 -1.00095116316851E-01  5.86926091665122E-01
  1.39674973874971E-01 -1.00095116316851E-01 -5.86926091665122E-01
 -8.24011674861769E-01  4.16426463011553E-01  3.42606216572947E-01
  8.24011674861769E-01  4.16426463011553E-01 -3.42606216572947E-01
  3.89809966558377E-01 -4.92966278225416E-01 -2.33478271743137E-01
 -3.89809966558377E-01 -4.92966278225416E-01  2.33478271743137E-01
 Total energy (etotal) [Ha]= -3.57661673186648E+01

 Difference of energy with previous step (new-old):
           Absolute (Ha)= 1.64939E+00
           Relative     = 4.50767E-02

--- Iteration: ( 42/100) Internal Cycle: (1/1)
--------------------------------------------------------------------------------

---SELF-CONSISTENT-FIELD CONVERGENCE--------------------------------------------

--- !BeginCycle
iteration_state: {dtset: 1, itime: 42, icycle: 1, }
solver: {iscf: 7, nstep: 100, nline: 4, wfoptalg: 0, }
tolerances: {tolrff: 2.00E-02, }
...

     iter   Etot(hartree)      deltaE(h)  residm     vres2    diffor    maxfor
 ETOT  1  -2.8301217032563    -2.830E+00 1.393E-02 1.150E+05 4.601E-01 4.992E-01
 ETOT  2  -27.417459598079    -2.459E+01 1.252E-01 2.263E+04 3.793E-01 1.199E-01
 ETOT  3  -35.310890313456    -7.893E+00 2.966E-02 5.764E+03 1.345E-01 5.452E-02
 ETOT  4  -31.119104190555     4.192E+00 4.725E-03 1.661E+04 9.702E-02 1.343E-01
 ETOT  5  -36.841641665257    -5.723E+00 1.177E-03 1.340E+03 1.463E-01 2.336E-02
 ETOT  6  -26.423255029424     1.042E+01 2.263E-03 3.055E+04 2.310E-01 2.190E-01
 ETOT  7  -36.893075070971    -1.047E+01 1.744E-03 1.093E+03 2.125E-01 3.504E-02
 ETOT  8  -34.469194672382     2.424E+00 2.832E-04 8.127E+03 5.667E-02 6.308E-02
 ETOT  9  -36.658881561623    -2.190E+00 2.131E-04 1.822E+03 5.545E-02 3.830E-02
 ETOT 10  -37.184599542492    -5.257E-01 6.182E-05 5.078E+02 3.509E-02 4.442E-02
 ETOT 11  -37.116480449585     6.812E-02 1.438E-05 5.561E+02 1.899E-02 4.048E-02
 ETOT 12  -37.142436840657    -2.596E-02 1.283E-05 5.533E+02 1.063E-02 4.272E-02

 Cartesian components of stress tensor (hartree/bohr^3)
  sigma(1 1)=  4.10526056E-04  sigma(3 2)=  0.00000000E+00
  sigma(2 2)=  3.81957861E-04  sigma(3 1)= -5.48107440E-05
  sigma(3 3)=  3.13188759E-04  sigma(2 1)=  0.00000000E+00


 scprqt:  WARNING -
  nstep=  100 was not enough SCF cycles to converge;
  maximum force difference=  1.063E-02 exceeds tolrff*maxfor=  8.545E-04


--- !ResultsGS
iteration_state: {dtset: 1, itime: 42, icycle: 1, }
comment   : Summary of ground state results
lattice_vectors:
- [ 15.0000000,   0.0000000,   0.0000000, ]
- [  0.0000000,  15.0000000,   0.0000000, ]
- [  0.0000000,   0.0000000,  15.0000000, ]
lattice_lengths: [  15.00000,   15.00000,   15.00000, ]
lattice_angles: [ 90.000,  90.000,  90.000, ] # degrees, (23, 13, 12)
lattice_volume:   3.3750000E+03
convergence: {deltae: -2.596E-02, res2:  5.533E+02, residm:  1.283E-05, diffor:  1.063E-02, }
etotal    :  -3.71424368E+01
entropy   :   0.00000000E+00
fermie    :  -1.93972784E-01
cartesian_stress_tensor: # hartree/bohr^3
- [  4.10526056E-04,   0.00000000E+00,  -5.48107440E-05, ]
- [  0.00000000E+00,   3.81957861E-04,   0.00000000E+00, ]
- [ -5.48107440E-05,   0.00000000E+00,   3.13188759E-04, ]
pressure_GPa:  -1.0843E+01
xred      :
- [  0.0000E+00,  -6.0972E-01,   0.0000E+00, Si]
- [ -5.2659E-01,  -8.7393E-03,   2.7584E-01,  O]
- [  5.2659E-01,  -8.7393E-03,  -2.7584E-01,  O]
- [  1.8999E-01,   1.2930E-01,  -1.8843E-01,  H]
- [ -1.8999E-01,   1.2930E-01,   1.8843E-01,  H]
- [ -3.5023E-01,  -4.0039E-01,   2.1902E-01,  H]
- [  3.5023E-01,  -4.0039E-01,  -2.1902E-01,  H]
cartesian_forces: # hartree/bohr
- [ -0.00000000E+00,  -4.27233969E-02,  -0.00000000E+00, ]
- [  1.49240121E-02,  -3.88771856E-03,   3.63374152E-03, ]
- [ -1.49240121E-02,  -3.88771856E-03,  -3.63374152E-03, ]
- [ -8.96096336E-03,   1.37736421E-02,   1.55951852E-02, ]
- [  8.96096336E-03,   1.37736421E-02,  -1.55951852E-02, ]
- [ -1.56077491E-04,   1.14757749E-02,   1.57051337E-03, ]
- [  1.56077491E-04,   1.14757749E-02,  -1.57051337E-03, ]
force_length_stats: {min:   1.15837940E-02, max:   4.27233969E-02, mean:   2.04126513E-02, }
...

 Integrated electronic density in atomic spheres:
 ------------------------------------------------
 Atom  Sphere_radius  Integrated_density
    1        2.00000          1.48096579
    2        2.00000          5.64858348
    3        2.00000          5.64858348
    4        2.00000          0.75378212
    5        2.00000          0.75378212
    6        2.00000          0.14955356
    7        2.00000          0.14955356

---OUTPUT-----------------------------------------------------------------------

 Cartesian coordinates (xcart) [bohr]
  0.00000000000000E+00 -9.14584617030049E+00  0.00000000000000E+00
 -7.89888271609898E+00 -1.31089756250635E-01  4.13764274411354E+00
  7.89888271609897E+00 -1.31089756250635E-01 -4.13764274411354E+00
  2.84984204968408E+00  1.93951686095389E+00 -2.82637778578349E+00
 -2.84984204968409E+00  1.93951686095389E+00  2.82637778578349E+00
 -5.25342785673790E+00 -6.00589109760095E+00  3.28524671458003E+00
  5.25342785673790E+00 -6.00589109760095E+00 -3.28524671458003E+00
 Reduced coordinates (xred)
  0.00000000000000E+00 -6.09723078020033E-01  0.00000000000000E+00
 -5.26592181073265E-01 -8.73931708337567E-03  2.75842849607569E-01
  5.26592181073265E-01 -8.73931708337566E-03 -2.75842849607569E-01
  1.89989469978939E-01  1.29301124063593E-01 -1.88425185718900E-01
 -1.89989469978939E-01  1.29301124063593E-01  1.88425185718900E-01
 -3.50228523782527E-01 -4.00392739840063E-01  2.19016447638669E-01
  3.50228523782527E-01 -4.00392739840063E-01 -2.19016447638669E-01
 Cartesian forces (fcart) [Ha/bohr]; max,rms= 4.27234E-02 1.31334E-02 (free atoms)
 -0.00000000000000E+00 -4.27233969210022E-02 -0.00000000000000E+00
  1.49240120571285E-02 -3.88771855807013E-03  3.63374152477310E-03
 -1.49240120571285E-02 -3.88771855807013E-03 -3.63374152477310E-03
 -8.96096336265620E-03  1.37736420981894E-02  1.55951852473718E-02
  8.96096336265620E-03  1.37736420981894E-02 -1.55951852473718E-02
 -1.56077490635669E-04  1.14757749203818E-02  1.57051337228049E-03
  1.56077490635669E-04  1.14757749203818E-02 -1.57051337228049E-03
 Reduced forces (fred)
  0.00000000000000E+00  6.40850953815032E-01  0.00000000000000E+00
 -2.23860180856927E-01  5.83157783710520E-02 -5.45061228715965E-02
  2.23860180856927E-01  5.83157783710520E-02  5.45061228715965E-02
  1.34414450439843E-01 -2.06604631472841E-01 -2.33927778710578E-01
 -1.34414450439843E-01 -2.06604631472841E-01  2.33927778710578E-01
  2.34116235953504E-03 -1.72136623805727E-01 -2.35577005842074E-02
 -2.34116235953504E-03 -1.72136623805727E-01  2.35577005842074E-02
 Total energy (etotal) [Ha]= -3.71424368406567E+01

 Difference of energy with previous step (new-old):
           Absolute (Ha)=-1.37627E+00
           Relative     =-3.77533E-02

--- Iteration: ( 43/100) Internal Cycle: (1/1)
--------------------------------------------------------------------------------

---SELF-CONSISTENT-FIELD CONVERGENCE--------------------------------------------

--- !BeginCycle
iteration_state: {dtset: 1, itime: 43, icycle: 1, }
solver: {iscf: 7, nstep: 100, nline: 4, wfoptalg: 0, }
tolerances: {tolrff: 2.00E-02, }
...

     iter   Etot(hartree)      deltaE(h)  residm     vres2    diffor    maxfor
 ETOT  1  -25.492569786482    -2.549E+01 1.389E-03 3.460E+04 2.362E-01 2.325E-01
 ETOT  2  -29.753890034347    -4.261E+00 1.510E-02 2.222E+04 1.650E-01 1.078E-01
 ETOT  3  -34.661082483077    -4.907E+00 1.443E-02 8.744E+03 6.159E-02 8.086E-02
 ETOT  4  -36.312807511746    -1.652E+00 2.391E-03 3.558E+03 2.428E-02 6.424E-02
 ETOT  5  -36.733112613793    -4.203E-01 3.992E-04 1.209E+03 7.435E-02 2.943E-02
 ETOT  6  -36.968954571199    -2.358E-01 6.853E-06 8.937E+02 9.676E-03 2.575E-02
 ETOT  7  -36.432268078267     5.367E-01 7.560E-04 1.861E+03 6.811E-03 2.761E-02
 ETOT  8  -36.526105973350    -9.384E-02 5.124E-05 1.600E+03 2.326E-03 2.694E-02
 ETOT  9  -36.590231967713    -6.413E-02 3.380E-03 1.763E+03 2.498E-02 3.226E-02
 ETOT 10  -36.789760387319    -1.995E-01 2.057E-04 1.440E+03 3.667E-02 5.487E-02
 ETOT 11  -36.812992637944    -2.323E-02 3.258E-05 1.204E+03 3.109E-02 3.070E-02
 ETOT 12  -37.196489323086    -3.835E-01 1.835E-03 7.310E+02 5.567E-02 2.497E-02
 ETOT 13  -36.907437136603     2.891E-01 2.877E-05 1.530E+03 3.371E-02 4.478E-02
 ETOT 14  -36.808118319749     9.932E-02 1.120E-04 1.910E+03 1.225E-02 5.201E-02
 ETOT 15  -36.439955515565     3.682E-01 2.282E-04 2.620E+03 4.261E-02 5.967E-02
 ETOT 16  -36.961109048287    -5.212E-01 1.676E-04 1.095E+03 4.830E-02 3.266E-02
 ETOT 17  -36.492711139102     4.684E-01 4.460E-05 2.224E+03 2.745E-02 3.882E-02
 ETOT 18  -36.677419779223    -1.847E-01 8.433E-06 1.820E+03 6.846E-03 3.198E-02
 ETOT 19  -36.580533954390     9.689E-02 7.922E-06 2.028E+03 3.628E-03 3.561E-02
 ETOT 20  -36.790791194036    -2.103E-01 1.112E-04 1.496E+03 6.689E-03 2.892E-02
 ETOT 21  -36.823682578346    -3.289E-02 1.883E-05 1.470E+03 2.694E-03 2.947E-02
 ETOT 22  -36.664388525266     1.593E-01 2.176E-05 1.852E+03 9.159E-03 3.603E-02
 ETOT 23  -36.689856450976    -2.547E-02 6.825E-04 2.070E+03 7.147E-02 4.984E-02
 ETOT 24  -36.362423220160     3.274E-01 1.685E-04 2.533E+03 5.583E-02 5.173E-02
 ETOT 25  -37.141613087120    -7.792E-01 2.625E-04 7.849E+02 8.198E-02 4.242E-02
 ETOT 26  -37.345036182745    -2.034E-01 2.411E-04 1.918E+02 2.731E-02 3.382E-02
 ETOT 27  -37.400179489453    -5.514E-02 1.183E-05 6.122E+01 9.720E-03 2.410E-02
 ETOT 28  -37.298664463062     1.015E-01 6.782E-06 3.495E+02 1.464E-02 2.218E-02
 ETOT 29  -37.447415676059    -1.488E-01 1.021E-05 3.177E+00 2.455E-02 2.660E-02
 ETOT 30  -37.281063931197     1.664E-01 1.811E-05 2.750E+02 9.994E-03 2.821E-02
 ETOT 31  -37.427231308528    -1.462E-01 5.161E-06 5.073E+01 6.984E-03 2.564E-02
 ETOT 32  -37.420319158069     6.912E-03 1.474E-06 7.012E+01 2.863E-03 2.835E-02
 ETOT 33  -37.403023295633     1.730E-02 7.883E-06 2.737E+01 1.740E-02 2.269E-02
 ETOT 34  -37.413274609310    -1.025E-02 2.055E-06 9.878E+00 3.016E-03 2.466E-02
 ETOT 35  -37.425766754331    -1.249E-02 1.224E-06 3.007E+01 6.993E-03 2.448E-02
 ETOT 36  -37.439548174325    -1.378E-02 1.407E-06 2.877E+01 1.766E-02 2.627E-02
 ETOT 37  -37.418462401948     2.109E-02 8.377E-07 6.648E+00 1.841E-02 2.712E-02
 ETOT 38  -37.421177009946    -2.715E-03 3.080E-07 4.469E+01 9.503E-03 2.456E-02
 ETOT 39  -37.410205453656     1.097E-02 1.178E-06 6.708E+01 1.504E-03 2.606E-02
 ETOT 40  -37.442458065710    -3.225E-02 1.149E-06 2.108E+01 1.968E-02 2.968E-02
 ETOT 41  -37.444448636257    -1.991E-03 3.462E-08 1.658E+01 6.066E-04 2.928E-02
 ETOT 42  -37.417520986977     2.693E-02 3.715E-08 5.959E+01 1.963E-02 2.545E-02
 ETOT 43  -37.417984195140    -4.632E-04 1.108E-07 5.599E+01 2.043E-04 2.533E-02
 ETOT 44  -37.444694955164    -2.671E-02 7.245E-07 1.692E+01 1.945E-02 2.774E-02
 ETOT 45  -37.414629879346     3.007E-02 2.087E-07 6.662E+01 2.030E-02 2.523E-02
 ETOT 46  -37.407260289588     7.370E-03 1.590E-06 1.246E+01 9.693E-03 2.472E-02
 ETOT 47  -37.445419036457    -3.816E-02 1.754E-06 1.464E+01 1.972E-02 2.887E-02
 ETOT 48  -37.446240297340    -8.213E-04 2.184E-08 1.507E+01 6.377E-04 2.827E-02
 ETOT 49  -37.438122059312     8.118E-03 1.683E-08 7.502E+00 7.055E-03 2.962E-02
 ETOT 50  -37.444161463865    -6.039E-03 2.518E-08 1.513E+01 5.743E-03 2.712E-02
 ETOT 51  -37.444717291571    -5.558E-04 7.467E-10 1.609E+01 5.783E-04 2.742E-02
 ETOT 52  -37.416418345306     2.830E-02 2.158E-09 6.248E+01 1.979E-02 2.542E-02
 ETOT 53  -37.415961958328     4.564E-04 2.712E-09 6.392E+01 9.398E-05 2.540E-02
 ETOT 54  -37.417282599430    -1.321E-03 1.132E-09 6.689E+00 8.424E-03 2.548E-02
 ETOT 55  -37.443110328045    -2.583E-02 6.970E-09 1.144E+01 1.815E-02 2.895E-02
 ETOT 56  -37.416548710504     2.656E-02 7.669E-09 6.211E+01 1.759E-02 2.538E-02
