
.Version 9.2.2 of ABINIT 
.(MPI version, prepared for a x86_64_darwin19.6.0_gnu10.2 computer) 

.Copyright (C) 1998-2020 ABINIT group . 
 ABINIT comes with ABSOLUTELY NO WARRANTY.
 It is free software, and you are welcome to redistribute it
 under certain conditions (GNU General Public License,
 see ~abinit/COPYING or http://www.gnu.org/copyleft/gpl.txt).

 ABINIT is a project of the Universite Catholique de Louvain,
 Corning Inc. and other collaborators, see ~abinit/doc/developers/contributors.txt .
 Please read https://docs.abinit.org/theory/acknowledgments for suggested
 acknowledgments of the ABINIT effort.
 For more information, see https://www.abinit.org .

.Starting date : Thu 11 Mar 2021.
- ( at 21h42 )
  
- input  file    -> sth1_relax.in
- output file    -> sth1_relax.abo
- root for input  files -> sth1_relaxi
- root for output files -> sth1_relaxo


 DATASET    1 : space group P-4 3 m (#215); Bravais cP (primitive cubic)
================================================================================
 Values of the parameters that define the memory need for DATASET  1.
     intxc =       0    ionmov =       2      iscf =       7    lmnmax =       6
     lnmax =       6     mgfft =      48  mpssoang =       3    mqgrid =    3001
     natom =      21  nloc_mem =       1    nspden =       1   nspinor =       1
    nsppol =       1      nsym =      24    n1xccc =    2501    ntypat =       3
    occopt =       1   xclevel =       1
-    mband =         100        mffmem =           1         mkmem =           1
       mpw =        6776          nfft =      110592          nkpt =           1
================================================================================
P This job should need less than                      46.860 Mbytes of memory.
  Rough estimation (10% accuracy) of disk space for files :
_ WF disk file :     10.341 Mbytes ; DEN or POT disk file :      0.846 Mbytes.
================================================================================

--------------------------------------------------------------------------------
------------- Echo of variables that govern the present computation ------------
--------------------------------------------------------------------------------
-
- outvars: echo of selected default values                                      
-   iomode0 =  0 , fftalg0 =312 , wfoptalg0 =  0
-
- outvars: echo of global parameters not present in the input file              
-  max_nthreads =    8
-
 -outvars: echo values of preprocessed input variables --------
            acell      1.5000000000E+01  1.5000000000E+01  1.5000000000E+01 Bohr
              amu      1.00794000E+00  1.59994000E+01  2.80855000E+01
           diemac      1.20000000E+01
             ecut      1.20000000E+01 Hartree
-          fftalg         312
           ionmov           2
           istwfk        1
              ixc       -1012
           jdtset        1
              kpt      5.00000000E-01  5.00000000E-01  5.00000000E-01
         kptrlatt        1    0    0      0    1    0      0    0    1
          kptrlen      1.50000000E+01
P           mkmem           1
            natom          21
            nband         100
           ndtset           1
            ngfft          48      48      48
             nkpt           1
            nstep         100
             nsym          24
            ntime         100
           ntypat           3
              occ      2.000000  2.000000  2.000000  2.000000  2.000000  2.000000
                       2.000000  2.000000  2.000000  2.000000  2.000000  2.000000
                       2.000000  2.000000  2.000000  2.000000  2.000000  2.000000
                       2.000000  2.000000  2.000000  2.000000  2.000000  2.000000
                       2.000000  2.000000  2.000000  2.000000  0.000000  0.000000
                       0.000000  0.000000  0.000000  0.000000  0.000000  0.000000
                       0.000000  0.000000  0.000000  0.000000  0.000000  0.000000
                       0.000000  0.000000  0.000000  0.000000  0.000000  0.000000
                       0.000000  0.000000  0.000000  0.000000  0.000000  0.000000
                       0.000000  0.000000  0.000000  0.000000  0.000000  0.000000
                       0.000000  0.000000  0.000000  0.000000  0.000000  0.000000
                       0.000000  0.000000  0.000000  0.000000  0.000000  0.000000
                       0.000000  0.000000  0.000000  0.000000  0.000000  0.000000
                       0.000000  0.000000  0.000000  0.000000  0.000000  0.000000
                       0.000000  0.000000  0.000000  0.000000  0.000000  0.000000
                       0.000000  0.000000  0.000000  0.000000  0.000000  0.000000
                       0.000000  0.000000  0.000000  0.000000
        optforces           1
           shiftk      5.00000000E-01  5.00000000E-01  5.00000000E-01
          spgroup         215
           symrel      1  0  0   0  1  0   0  0  1      -1  0  0   0  1  0   0  0 -1
                      -1  0  0   0 -1  0   0  0  1       1  0  0   0 -1  0   0  0 -1
                       0  1  0   1  0  0   0  0  1       0 -1  0   1  0  0   0  0 -1
                       0 -1  0  -1  0  0   0  0  1       0  1  0  -1  0  0   0  0 -1
                       0  0  1   1  0  0   0  1  0       0  0 -1   1  0  0   0 -1  0
                       0  0 -1  -1  0  0   0  1  0       0  0  1  -1  0  0   0 -1  0
                       1  0  0   0  0  1   0  1  0      -1  0  0   0  0  1   0 -1  0
                      -1  0  0   0  0 -1   0  1  0       1  0  0   0  0 -1   0 -1  0
                       0  1  0   0  0  1   1  0  0       0 -1  0   0  0  1  -1  0  0
                       0 -1  0   0  0 -1   1  0  0       0  1  0   0  0 -1  -1  0  0
                       0  0  1   0  1  0   1  0  0       0  0 -1   0  1  0  -1  0  0
                       0  0 -1   0 -1  0   1  0  0       0  0  1   0 -1  0  -1  0  0
           tolrff      2.00000000E-02
            typat      3  3  3  3  3  2  2  2  2  1  1  1  1  1  1  1  1  1  1  1
                       1
           xangst      0.0000000000E+00  0.0000000000E+00  0.0000000000E+00
                       1.8804372284E+00 -1.8804372284E+00 -1.8804372284E+00
                      -1.8804372284E+00  1.8804372284E+00 -1.8804372284E+00
                      -1.8804372284E+00 -1.8804372284E+00  1.8804372284E+00
                       1.8804372284E+00  1.8804372284E+00  1.8804372284E+00
                       9.2904949682E-01 -9.2904949682E-01 -9.2904949682E-01
                      -9.2904949682E-01  9.2904949682E-01 -9.2904949682E-01
                      -9.2904949682E-01 -9.2904949682E-01  9.2904949682E-01
                       9.2904949682E-01  9.2904949682E-01  9.2904949682E-01
                       1.5645349042E+00 -1.5645349042E+00 -3.3105335111E+00
                       1.5645349042E+00 -3.3105335111E+00 -1.5645349042E+00
                       3.3105335111E+00 -1.5645349042E+00 -1.5645349042E+00
                      -1.5645349042E+00  1.5645349042E+00 -3.3105335111E+00
                      -1.5645349042E+00  3.3105335111E+00 -1.5645349042E+00
                      -3.3105335111E+00  1.5645349042E+00 -1.5645349042E+00
                      -1.5645349042E+00 -1.5645349042E+00  3.3105335111E+00
                      -1.5645349042E+00 -3.3105335111E+00  1.5645349042E+00
                      -3.3105335111E+00 -1.5645349042E+00  1.5645349042E+00
                       3.3105335111E+00  1.5645349042E+00  1.5645349042E+00
                       1.5645349042E+00  3.3105335111E+00  1.5645349042E+00
                       1.5645349042E+00  1.5645349042E+00  3.3105335111E+00
            xcart      0.0000000000E+00  0.0000000000E+00  0.0000000000E+00
                       3.5535113717E+00 -3.5535113717E+00 -3.5535113717E+00
                      -3.5535113717E+00  3.5535113717E+00 -3.5535113717E+00
                      -3.5535113717E+00 -3.5535113717E+00  3.5535113717E+00
                       3.5535113717E+00  3.5535113717E+00  3.5535113717E+00
                       1.7556491129E+00 -1.7556491129E+00 -1.7556491129E+00
                      -1.7556491129E+00  1.7556491129E+00 -1.7556491129E+00
                      -1.7556491129E+00 -1.7556491129E+00  1.7556491129E+00
                       1.7556491129E+00  1.7556491129E+00  1.7556491129E+00
                       2.9565424942E+00 -2.9565424942E+00 -6.2560016897E+00
                       2.9565424942E+00 -6.2560016897E+00 -2.9565424942E+00
                       6.2560016897E+00 -2.9565424942E+00 -2.9565424942E+00
                      -2.9565424942E+00  2.9565424942E+00 -6.2560016897E+00
                      -2.9565424942E+00  6.2560016897E+00 -2.9565424942E+00
                      -6.2560016897E+00  2.9565424942E+00 -2.9565424942E+00
                      -2.9565424942E+00 -2.9565424942E+00  6.2560016897E+00
                      -2.9565424942E+00 -6.2560016897E+00  2.9565424942E+00
                      -6.2560016897E+00 -2.9565424942E+00  2.9565424942E+00
                       6.2560016897E+00  2.9565424942E+00  2.9565424942E+00
                       2.9565424942E+00  6.2560016897E+00  2.9565424942E+00
                       2.9565424942E+00  2.9565424942E+00  6.2560016897E+00
             xred      0.0000000000E+00  0.0000000000E+00  0.0000000000E+00
                       2.3690075811E-01 -2.3690075811E-01 -2.3690075811E-01
                      -2.3690075811E-01  2.3690075811E-01 -2.3690075811E-01
                      -2.3690075811E-01 -2.3690075811E-01  2.3690075811E-01
                       2.3690075811E-01  2.3690075811E-01  2.3690075811E-01
                       1.1704327419E-01 -1.1704327419E-01 -1.1704327419E-01
                      -1.1704327419E-01  1.1704327419E-01 -1.1704327419E-01
                      -1.1704327419E-01 -1.1704327419E-01  1.1704327419E-01
                       1.1704327419E-01  1.1704327419E-01  1.1704327419E-01
                       1.9710283295E-01 -1.9710283295E-01 -4.1706677931E-01
                       1.9710283295E-01 -4.1706677931E-01 -1.9710283295E-01
                       4.1706677931E-01 -1.9710283295E-01 -1.9710283295E-01
                      -1.9710283295E-01  1.9710283295E-01 -4.1706677931E-01
                      -1.9710283295E-01  4.1706677931E-01 -1.9710283295E-01
                      -4.1706677931E-01  1.9710283295E-01 -1.9710283295E-01
                      -1.9710283295E-01 -1.9710283295E-01  4.1706677931E-01
                      -1.9710283295E-01 -4.1706677931E-01  1.9710283295E-01
                      -4.1706677931E-01 -1.9710283295E-01  1.9710283295E-01
                       4.1706677931E-01  1.9710283295E-01  1.9710283295E-01
                       1.9710283295E-01  4.1706677931E-01  1.9710283295E-01
                       1.9710283295E-01  1.9710283295E-01  4.1706677931E-01
            znucl        1.00000    8.00000   14.00000

================================================================================

 chkinp: Checking input parameters for consistency, jdtset=   1.

================================================================================
== DATASET  1 ==================================================================
-   mpi_nproc: 4, omp_nthreads: 8 (-1 if OMP is not activated)
-    --> not optimal distribution: autoparal keyword recommended in input file <--


--- !DatasetInfo
iteration_state: {dtset: 1, }
dimensions: {natom: 21, nkpt: 1, mband: 100, nsppol: 1, nspinor: 1, nspden: 1, mpw: 6776, }
cutoff_energies: {ecut:  12.0, pawecutdg:  -1.0, }
electrons: {nelect:   5.60000000E+01, charge:   0.00000000E+00, occopt:   1.00000000E+00, tsmear:   1.00000000E-02, }
meta: {optdriver: 0, ionmov: 2, optcell: 0, iscf: 7, paral_kgb: 0, }
...

 Real(R)+Recip(G) space primitive vectors, cartesian coordinates (Bohr,Bohr^-1):
 R(1)= 15.0000000  0.0000000  0.0000000  G(1)=  0.0666667  0.0000000  0.0000000
 R(2)=  0.0000000 15.0000000  0.0000000  G(2)=  0.0000000  0.0666667  0.0000000
 R(3)=  0.0000000  0.0000000 15.0000000  G(3)=  0.0000000  0.0000000  0.0666667
 Unit cell volume ucvol=  3.3750000E+03 bohr^3
 Angles (23,13,12)=  9.00000000E+01  9.00000000E+01  9.00000000E+01 degrees

 getcut: wavevector=  0.0000  0.0000  0.0000  ngfft=  48  48  48
         ecut(hartree)=     12.000   => boxcut(ratio)=   2.05208

--- Pseudopotential description ------------------------------------------------
- pspini: atom type   1  psp file is /Users/ali/Desktop/JDFTX/build-withlibxc/pseudopotentials/H.psp8
- pspatm: opening atomic psp file    /Users/ali/Desktop/JDFTX/build-withlibxc/pseudopotentials/H.psp8
- H     ONCVPSP-3.3.0  r_core=   1.00957   0.90680
-  1.00000   1.00000    171101                znucl, zion, pspdat
    8   -1012    1    4       300   0.00000   pspcod,pspxc,lmax,lloc,mmax,r2well
    2.99000000000000    0.00000000000000    0.00000000000000   rchrg,fchrg,qchrg
     nproj     2     1
     extension_switch     1
  pspatm : epsatm=    0.35491505
         --- l  ekb(1:nproj) -->
             0   -1.665338   -0.519510
             1   -0.275071
 pspatm: atomic psp has been read  and splines computed

- pspini: atom type   2  psp file is /Users/ali/Desktop/JDFTX/build-withlibxc/pseudopotentials/O.psp8
- pspatm: opening atomic psp file    /Users/ali/Desktop/JDFTX/build-withlibxc/pseudopotentials/O.psp8
- O     ONCVPSP-3.3.0  r_core=   1.35509   1.45563   1.35509
-  8.00000   6.00000    171101                znucl, zion, pspdat
    8   -1012    2    4       600   0.00000   pspcod,pspxc,lmax,lloc,mmax,r2well
    5.99000000000000    4.00000000000000    0.00000000000000   rchrg,fchrg,qchrg
     nproj     2     2     1
     extension_switch     1
  pspatm : epsatm=    6.27558977
         --- l  ekb(1:nproj) -->
             0    6.026028    0.816167
             1   -4.798959   -1.172522
             2   -1.033686
 pspatm: atomic psp has been read  and splines computed

- pspini: atom type   3  psp file is /Users/ali/Desktop/JDFTX/build-withlibxc/pseudopotentials/Si.psp8
- pspatm: opening atomic psp file    /Users/ali/Desktop/JDFTX/build-withlibxc/pseudopotentials/Si.psp8
- Si    ONCVPSP-3.3.0  r_core=   1.60303   1.72197   1.91712
- 14.00000   4.00000    171102                znucl, zion, pspdat
    8   -1012    2    4       600   0.00000   pspcod,pspxc,lmax,lloc,mmax,r2well
    5.99000000000000    4.00000000000000    0.00000000000000   rchrg,fchrg,qchrg
     nproj     2     2     2
     extension_switch     1
  pspatm : epsatm=    6.67004110
         --- l  ekb(1:nproj) -->
             0    5.565958    0.856966
             1    2.726111    0.629828
             2   -2.124804   -0.444604
 pspatm: atomic psp has been read  and splines computed

   3.51184653E+03                                ecore*ucvol(ha*bohr**3)
--------------------------------------------------------------------------------

_setup2: Arith. and geom. avg. npw (full set) are    6776.000    6776.000

================================================================================

=== [ionmov= 2] Broyden-Fletcher-Goldfard-Shanno method (forces)            
================================================================================

--- Iteration: (  1/100) Internal Cycle: (1/1)
--------------------------------------------------------------------------------

---SELF-CONSISTENT-FIELD CONVERGENCE--------------------------------------------

--- !BeginCycle
iteration_state: {dtset: 1, itime: 1, icycle: 1, }
solver: {iscf: 7, nstep: 100, nline: 4, wfoptalg: 0, }
tolerances: {tolrff: 2.00E-02, }
...

     iter   Etot(hartree)      deltaE(h)  residm     vres2    diffor    maxfor
 ETOT  1  -92.086479632145    -9.209E+01 1.016E-02 1.098E+02 2.327E-02 2.327E-02
 ETOT  2  -92.171860192616    -8.538E-02 4.921E-04 3.791E+01 3.254E-02 1.510E-02
 ETOT  3  -92.177657330695    -5.797E-03 2.991E-04 4.923E+00 2.110E-02 6.008E-03
 ETOT  4  -92.179548824434    -1.891E-03 8.483E-05 4.801E+00 1.061E-02 4.598E-03
 ETOT  5  -92.180629877669    -1.081E-03 5.401E-05 4.009E-01 6.783E-03 4.311E-03
 ETOT  6  -92.180653528579    -2.365E-05 2.115E-05 7.046E-02 5.060E-04 4.123E-03
 ETOT  7  -92.180658470104    -4.942E-06 1.045E-05 5.589E-03 7.145E-04 4.837E-03
 ETOT  8  -92.180658872406    -4.023E-07 5.460E-06 4.302E-04 2.952E-04 4.542E-03
 ETOT  9  -92.180658900332    -2.793E-08 2.790E-06 3.909E-05 1.383E-04 4.680E-03
 ETOT 10  -92.180658904486    -4.154E-09 1.484E-06 2.501E-06 3.818E-05 4.642E-03
 ETOT 11  -92.180658904650    -1.641E-10 7.616E-07 2.613E-07 6.259E-06 4.648E-03

 At SCF step   11, forces are sufficiently converged : 
  for the second time, max diff in force=  6.259E-06 is less than < tolrff=  2.000E-02 times max force

 Cartesian components of stress tensor (hartree/bohr^3)
  sigma(1 1)=  9.91296129E-04  sigma(3 2)=  0.00000000E+00
  sigma(2 2)=  9.91296129E-04  sigma(3 1)=  0.00000000E+00
  sigma(3 3)=  9.91296129E-04  sigma(2 1)=  0.00000000E+00


--- !ResultsGS
iteration_state: {dtset: 1, itime: 1, icycle: 1, }
comment   : Summary of ground state results
lattice_vectors:
- [ 15.0000000,   0.0000000,   0.0000000, ]
- [  0.0000000,  15.0000000,   0.0000000, ]
- [  0.0000000,   0.0000000,  15.0000000, ]
lattice_lengths: [  15.00000,   15.00000,   15.00000, ]
lattice_angles: [ 90.000,  90.000,  90.000, ] # degrees, (23, 13, 12)
lattice_volume:   3.3750000E+03
convergence: {deltae: -1.641E-10, res2:  2.613E-07, residm:  7.616E-07, diffor:  6.259E-06, }
etotal    :  -9.21806589E+01
entropy   :   0.00000000E+00
fermie    :  -1.57288964E-01
cartesian_stress_tensor: # hartree/bohr^3
- [  9.91296129E-04,   0.00000000E+00,   0.00000000E+00, ]
- [  0.00000000E+00,   9.91296129E-04,   0.00000000E+00, ]
- [  0.00000000E+00,   0.00000000E+00,   9.91296129E-04, ]
pressure_GPa:  -2.9165E+01
xred      :
- [  0.0000E+00,   0.0000E+00,   0.0000E+00, Si]
- [  2.3690E-01,  -2.3690E-01,  -2.3690E-01, Si]
- [ -2.3690E-01,   2.3690E-01,  -2.3690E-01, Si]
- [ -2.3690E-01,  -2.3690E-01,   2.3690E-01, Si]
- [  2.3690E-01,   2.3690E-01,   2.3690E-01, Si]
- [  1.1704E-01,  -1.1704E-01,  -1.1704E-01,  O]
- [ -1.1704E-01,   1.1704E-01,  -1.1704E-01,  O]
- [ -1.1704E-01,  -1.1704E-01,   1.1704E-01,  O]
- [  1.1704E-01,   1.1704E-01,   1.1704E-01,  O]
- [  1.9710E-01,  -1.9710E-01,  -4.1707E-01,  H]
- [  1.9710E-01,  -4.1707E-01,  -1.9710E-01,  H]
- [  4.1707E-01,  -1.9710E-01,  -1.9710E-01,  H]
- [ -1.9710E-01,   1.9710E-01,  -4.1707E-01,  H]
- [ -1.9710E-01,   4.1707E-01,  -1.9710E-01,  H]
- [ -4.1707E-01,   1.9710E-01,  -1.9710E-01,  H]
- [ -1.9710E-01,  -1.9710E-01,   4.1707E-01,  H]
- [ -1.9710E-01,  -4.1707E-01,   1.9710E-01,  H]
- [ -4.1707E-01,  -1.9710E-01,   1.9710E-01,  H]
- [  4.1707E-01,   1.9710E-01,   1.9710E-01,  H]
- [  1.9710E-01,   4.1707E-01,   1.9710E-01,  H]
- [  1.9710E-01,   1.9710E-01,   4.1707E-01,  H]
cartesian_forces: # hartree/bohr
- [  4.13029399E-20,  -2.06514700E-20,  -1.44560290E-19, ]
- [ -3.38300088E-03,   3.38300088E-03,   3.38300088E-03, ]
- [  3.38300088E-03,  -3.38300088E-03,   3.38300088E-03, ]
- [  3.38300088E-03,   3.38300088E-03,  -3.38300088E-03, ]
- [ -3.38300088E-03,  -3.38300088E-03,  -3.38300088E-03, ]
- [  4.64845148E-03,  -4.64845148E-03,  -4.64845148E-03, ]
- [ -4.64845148E-03,   4.64845148E-03,  -4.64845148E-03, ]
- [ -4.64845148E-03,  -4.64845148E-03,   4.64845148E-03, ]
- [  4.64845148E-03,   4.64845148E-03,   4.64845148E-03, ]
- [  1.20702931E-03,  -1.20702931E-03,  -1.18444255E-03, ]
- [  1.20702931E-03,  -1.18444255E-03,  -1.20702931E-03, ]
- [  1.18444255E-03,  -1.20702931E-03,  -1.20702931E-03, ]
- [ -1.20702931E-03,   1.20702931E-03,  -1.18444255E-03, ]
- [ -1.20702931E-03,   1.18444255E-03,  -1.20702931E-03, ]
- [ -1.18444255E-03,   1.20702931E-03,  -1.20702931E-03, ]
- [ -1.20702931E-03,  -1.20702931E-03,   1.18444255E-03, ]
- [ -1.20702931E-03,  -1.18444255E-03,   1.20702931E-03, ]
- [ -1.18444255E-03,  -1.20702931E-03,   1.20702931E-03, ]
- [  1.18444255E-03,   1.20702931E-03,   1.20702931E-03, ]
- [  1.20702931E-03,   1.18444255E-03,   1.20702931E-03, ]
- [  1.20702931E-03,   1.20702931E-03,   1.18444255E-03, ]
force_length_stats: {min:   1.51756691E-19, max:   8.05135414E-03, mean:   3.83693637E-03, }
...

 Integrated electronic density in atomic spheres:
 ------------------------------------------------
 Atom  Sphere_radius  Integrated_density
    1        2.00000          2.29459747
    2        2.00000          1.99784918
    3        2.00000          1.99784918
    4        2.00000          1.99784918
    5        2.00000          1.99784918
    6        2.00000          6.32315667
    7        2.00000          6.32315667
    8        2.00000          6.32315667
    9        2.00000          6.32315667
   10        2.00000          1.41002890
   11        2.00000          1.41002890
   12        2.00000          1.41002890
   13        2.00000          1.41002890
   14        2.00000          1.41002890
   15        2.00000          1.41002890
   16        2.00000          1.41002890
   17        2.00000          1.41002890
   18        2.00000          1.41002890
   19        2.00000          1.41002890
   20        2.00000          1.41002890
   21        2.00000          1.41002890

---OUTPUT-----------------------------------------------------------------------

 Cartesian coordinates (xcart) [bohr]
  0.00000000000000E+00  0.00000000000000E+00  0.00000000000000E+00
  3.55351137169669E+00 -3.55351137169669E+00 -3.55351137169669E+00
 -3.55351137169669E+00  3.55351137169669E+00 -3.55351137169669E+00
 -3.55351137169669E+00 -3.55351137169669E+00  3.55351137169669E+00
  3.55351137169669E+00  3.55351137169669E+00  3.55351137169669E+00
  1.75564911289135E+00 -1.75564911289135E+00 -1.75564911289135E+00
 -1.75564911289135E+00  1.75564911289135E+00 -1.75564911289135E+00
 -1.75564911289135E+00 -1.75564911289135E+00  1.75564911289135E+00
  1.75564911289135E+00  1.75564911289135E+00  1.75564911289135E+00
  2.95654249420496E+00 -2.95654249420496E+00 -6.25600168966599E+00
  2.95654249420496E+00 -6.25600168966599E+00 -2.95654249420496E+00
  6.25600168966599E+00 -2.95654249420496E+00 -2.95654249420496E+00
 -2.95654249420496E+00  2.95654249420496E+00 -6.25600168966599E+00
 -2.95654249420496E+00  6.25600168966599E+00 -2.95654249420496E+00
 -6.25600168966599E+00  2.95654249420496E+00 -2.95654249420496E+00
 -2.95654249420496E+00 -2.95654249420496E+00  6.25600168966599E+00
 -2.95654249420496E+00 -6.25600168966599E+00  2.95654249420496E+00
 -6.25600168966599E+00 -2.95654249420496E+00  2.95654249420496E+00
  6.25600168966599E+00  2.95654249420496E+00  2.95654249420496E+00
  2.95654249420496E+00  6.25600168966599E+00  2.95654249420496E+00
  2.95654249420496E+00  2.95654249420496E+00  6.25600168966599E+00
 Reduced coordinates (xred)
  0.00000000000000E+00  0.00000000000000E+00  0.00000000000000E+00
  2.36900758113113E-01 -2.36900758113113E-01 -2.36900758113113E-01
 -2.36900758113113E-01  2.36900758113113E-01 -2.36900758113113E-01
 -2.36900758113113E-01 -2.36900758113113E-01  2.36900758113113E-01
  2.36900758113113E-01  2.36900758113113E-01  2.36900758113113E-01
  1.17043274192757E-01 -1.17043274192757E-01 -1.17043274192757E-01
 -1.17043274192757E-01  1.17043274192757E-01 -1.17043274192757E-01
 -1.17043274192757E-01 -1.17043274192757E-01  1.17043274192757E-01
  1.17043274192757E-01  1.17043274192757E-01  1.17043274192757E-01
  1.97102832946997E-01 -1.97102832946997E-01 -4.17066779311066E-01
  1.97102832946997E-01 -4.17066779311066E-01 -1.97102832946997E-01
  4.17066779311066E-01 -1.97102832946997E-01 -1.97102832946997E-01
 -1.97102832946997E-01  1.97102832946997E-01 -4.17066779311066E-01
 -1.97102832946997E-01  4.17066779311066E-01 -1.97102832946997E-01
 -4.17066779311066E-01  1.97102832946997E-01 -1.97102832946997E-01
 -1.97102832946997E-01 -1.97102832946997E-01  4.17066779311066E-01
 -1.97102832946997E-01 -4.17066779311066E-01  1.97102832946997E-01
 -4.17066779311066E-01 -1.97102832946997E-01  1.97102832946997E-01
  4.17066779311066E-01  1.97102832946997E-01  1.97102832946997E-01
  1.97102832946997E-01  4.17066779311066E-01  1.97102832946997E-01
  1.97102832946997E-01  1.97102832946997E-01  4.17066779311066E-01
 Cartesian forces (fcart) [Ha/bohr]; max,rms= 4.64845E-03 2.66796E-03 (free atoms)
  4.13029399042097E-20 -2.06514699521048E-20 -1.44560289664734E-19
 -3.38300087589986E-03  3.38300087589986E-03  3.38300087589986E-03
  3.38300087589986E-03 -3.38300087589986E-03  3.38300087589986E-03
  3.38300087589986E-03  3.38300087589986E-03 -3.38300087589986E-03
 -3.38300087589986E-03 -3.38300087589986E-03 -3.38300087589986E-03
  4.64845148257689E-03 -4.64845148257689E-03 -4.64845148257689E-03
 -4.64845148257689E-03  4.64845148257689E-03 -4.64845148257689E-03
 -4.64845148257689E-03 -4.64845148257689E-03  4.64845148257689E-03
  4.64845148257689E-03  4.64845148257689E-03  4.64845148257689E-03
  1.20702930927555E-03 -1.20702930927555E-03 -1.18444254675576E-03
  1.20702930927555E-03 -1.18444254675576E-03 -1.20702930927555E-03
  1.18444254675576E-03 -1.20702930927555E-03 -1.20702930927555E-03
 -1.20702930927555E-03  1.20702930927555E-03 -1.18444254675576E-03
 -1.20702930927555E-03  1.18444254675576E-03 -1.20702930927555E-03
 -1.18444254675576E-03  1.20702930927555E-03 -1.20702930927555E-03
 -1.20702930927555E-03 -1.20702930927555E-03  1.18444254675576E-03
 -1.20702930927555E-03 -1.18444254675576E-03  1.20702930927555E-03
 -1.18444254675576E-03 -1.20702930927555E-03  1.20702930927555E-03
  1.18444254675576E-03  1.20702930927555E-03  1.20702930927555E-03
  1.20702930927555E-03  1.18444254675576E-03  1.20702930927555E-03
  1.20702930927555E-03  1.20702930927555E-03  1.18444254675576E-03
 Reduced forces (fred)
 -6.19544098563145E-19  3.09772049281573E-19  2.16840434497101E-18
  5.07450131384979E-02 -5.07450131384978E-02 -5.07450131384979E-02
 -5.07450131384979E-02  5.07450131384978E-02 -5.07450131384979E-02
 -5.07450131384979E-02 -5.07450131384978E-02  5.07450131384979E-02
  5.07450131384979E-02  5.07450131384978E-02  5.07450131384979E-02
 -6.97267722386533E-02  6.97267722386533E-02  6.97267722386533E-02
  6.97267722386533E-02 -6.97267722386533E-02  6.97267722386533E-02
  6.97267722386533E-02  6.97267722386533E-02 -6.97267722386533E-02
 -6.97267722386533E-02 -6.97267722386533E-02 -6.97267722386533E-02
 -1.81054396391333E-02  1.81054396391333E-02  1.77666382013364E-02
 -1.81054396391333E-02  1.77666382013364E-02  1.81054396391333E-02
 -1.77666382013364E-02  1.81054396391333E-02  1.81054396391333E-02
  1.81054396391333E-02 -1.81054396391333E-02  1.77666382013364E-02
  1.81054396391333E-02 -1.77666382013364E-02  1.81054396391333E-02
  1.77666382013364E-02 -1.81054396391333E-02  1.81054396391333E-02
  1.81054396391333E-02  1.81054396391333E-02 -1.77666382013364E-02
  1.81054396391333E-02  1.77666382013364E-02 -1.81054396391333E-02
  1.77666382013364E-02  1.81054396391333E-02 -1.81054396391333E-02
 -1.77666382013364E-02 -1.81054396391333E-02 -1.81054396391333E-02
 -1.81054396391333E-02 -1.77666382013364E-02 -1.81054396391333E-02
 -1.81054396391333E-02 -1.81054396391333E-02 -1.77666382013364E-02
 Total energy (etotal) [Ha]= -9.21806589046502E+01

--- Iteration: (  2/100) Internal Cycle: (1/1)
--------------------------------------------------------------------------------

---SELF-CONSISTENT-FIELD CONVERGENCE--------------------------------------------

--- !BeginCycle
iteration_state: {dtset: 1, itime: 2, icycle: 1, }
solver: {iscf: 7, nstep: 100, nline: 4, wfoptalg: 0, }
tolerances: {tolrff: 2.00E-02, }
...

     iter   Etot(hartree)      deltaE(h)  residm     vres2    diffor    maxfor
 ETOT  1  -92.179142283483    -9.218E+01 4.489E-07 4.731E+00 3.100E-02 3.565E-02
 ETOT  2  -92.180799433690    -1.657E-03 1.563E-07 2.340E-01 4.404E-02 8.391E-03
 ETOT  3  -92.180916756511    -1.173E-04 5.625E-06 6.911E-02 1.023E-02 1.837E-03
 ETOT  4  -92.180918811514    -2.055E-06 1.918E-07 3.276E-02 1.031E-03 1.304E-03
 ETOT  5  -92.180925935707    -7.124E-06 1.160E-07 3.248E-03 7.249E-04 1.230E-03
 ETOT  6  -92.180926193482    -2.578E-07 2.729E-08 2.033E-04 3.931E-05 1.200E-03
 ETOT  7  -92.180926211444    -1.796E-08 3.568E-09 1.355E-05 4.586E-06 1.195E-03
 ETOT  8  -92.180926212256    -8.112E-10 1.906E-09 1.355E-06 1.101E-05 1.194E-03

 At SCF step    8, forces are sufficiently converged : 
  for the second time, max diff in force=  1.101E-05 is less than < tolrff=  2.000E-02 times max force

 Cartesian components of stress tensor (hartree/bohr^3)
  sigma(1 1)=  9.91030593E-04  sigma(3 2)=  0.00000000E+00
  sigma(2 2)=  9.91030593E-04  sigma(3 1)=  0.00000000E+00
  sigma(3 3)=  9.91030593E-04  sigma(2 1)=  0.00000000E+00


--- !ResultsGS
iteration_state: {dtset: 1, itime: 2, icycle: 1, }
comment   : Summary of ground state results
lattice_vectors:
- [ 15.0000000,   0.0000000,   0.0000000, ]
- [  0.0000000,  15.0000000,   0.0000000, ]
- [  0.0000000,   0.0000000,  15.0000000, ]
lattice_lengths: [  15.00000,   15.00000,   15.00000, ]
lattice_angles: [ 90.000,  90.000,  90.000, ] # degrees, (23, 13, 12)
lattice_volume:   3.3750000E+03
convergence: {deltae: -8.112E-10, res2:  1.355E-06, residm:  1.906E-09, diffor:  1.101E-05, }
etotal    :  -9.21809262E+01
entropy   :   0.00000000E+00
fermie    :  -1.58074900E-01
cartesian_stress_tensor: # hartree/bohr^3
- [  9.91030593E-04,   0.00000000E+00,   0.00000000E+00, ]
- [  0.00000000E+00,   9.91030593E-04,   0.00000000E+00, ]
- [  0.00000000E+00,   0.00000000E+00,   9.91030593E-04, ]
pressure_GPa:  -2.9157E+01
xred      :
- [  7.1592E-21,  -3.5796E-21,  -1.4777E-20, Si]
- [  2.3668E-01,  -2.3668E-01,  -2.3668E-01, Si]
- [ -2.3668E-01,   2.3668E-01,  -2.3668E-01, Si]
- [ -2.3668E-01,  -2.3668E-01,   2.3668E-01, Si]
- [  2.3668E-01,   2.3668E-01,   2.3668E-01, Si]
- [  1.1735E-01,  -1.1735E-01,  -1.1735E-01,  O]
- [ -1.1735E-01,   1.1735E-01,  -1.1735E-01,  O]
- [ -1.1735E-01,  -1.1735E-01,   1.1735E-01,  O]
- [  1.1735E-01,   1.1735E-01,   1.1735E-01,  O]
- [  1.9718E-01,  -1.9718E-01,  -4.1715E-01,  H]
- [  1.9718E-01,  -4.1715E-01,  -1.9718E-01,  H]
- [  4.1715E-01,  -1.9718E-01,  -1.9718E-01,  H]
- [ -1.9718E-01,   1.9718E-01,  -4.1715E-01,  H]
- [ -1.9718E-01,   4.1715E-01,  -1.9718E-01,  H]
- [ -4.1715E-01,   1.9718E-01,  -1.9718E-01,  H]
- [ -1.9718E-01,  -1.9718E-01,   4.1715E-01,  H]
- [ -1.9718E-01,  -4.1715E-01,   1.9718E-01,  H]
- [ -4.1715E-01,  -1.9718E-01,   1.9718E-01,  H]
- [  4.1715E-01,   1.9718E-01,   1.9718E-01,  H]
- [  1.9718E-01,   4.1715E-01,   1.9718E-01,  H]
- [  1.9718E-01,   1.9718E-01,   4.1715E-01,  H]
cartesian_forces: # hartree/bohr
- [ -3.09772049E-20,  -2.06514700E-20,   4.64658074E-20, ]
- [ -3.11003823E-04,   3.11003823E-04,   3.11003823E-04, ]
- [  3.11003823E-04,  -3.11003823E-04,   3.11003823E-04, ]
- [  3.11003823E-04,   3.11003823E-04,  -3.11003823E-04, ]
- [ -3.11003823E-04,  -3.11003823E-04,  -3.11003823E-04, ]
- [  4.73924887E-04,  -4.73924887E-04,  -4.73924887E-04, ]
- [ -4.73924887E-04,   4.73924887E-04,  -4.73924887E-04, ]
- [ -4.73924887E-04,  -4.73924887E-04,   4.73924887E-04, ]
- [  4.73924887E-04,   4.73924887E-04,   4.73924887E-04, ]
- [  1.19418902E-03,  -1.19418902E-03,  -7.82010448E-04, ]
- [  1.19418902E-03,  -7.82010448E-04,  -1.19418902E-03, ]
- [  7.82010448E-04,  -1.19418902E-03,  -1.19418902E-03, ]
- [ -1.19418902E-03,   1.19418902E-03,  -7.82010448E-04, ]
- [ -1.19418902E-03,   7.82010448E-04,  -1.19418902E-03, ]
- [ -7.82010448E-04,   1.19418902E-03,  -1.19418902E-03, ]
- [ -1.19418902E-03,  -1.19418902E-03,   7.82010448E-04, ]
- [ -1.19418902E-03,  -7.82010448E-04,   1.19418902E-03, ]
- [ -7.82010448E-04,  -1.19418902E-03,   1.19418902E-03, ]
- [  7.82010448E-04,   1.19418902E-03,   1.19418902E-03, ]
- [  1.19418902E-03,   7.82010448E-04,   1.19418902E-03, ]
- [  1.19418902E-03,   1.19418902E-03,   7.82010448E-04, ]
force_length_stats: {min:   5.95410925E-20, max:   1.86110590E-03, mean:   1.32244840E-03, }
...

 Integrated electronic density in atomic spheres:
 ------------------------------------------------
 Atom  Sphere_radius  Integrated_density
    1        2.00000          2.27083288
    2        2.00000          2.00289441
    3        2.00000          2.00289441
    4        2.00000          2.00289441
    5        2.00000          2.00289441
    6        2.00000          6.33402648
    7        2.00000          6.33402648
    8        2.00000          6.33402648
    9        2.00000          6.33402648
   10        2.00000          1.40951162
   11        2.00000          1.40951162
   12        2.00000          1.40951162
   13        2.00000          1.40951162
   14        2.00000          1.40951162
   15        2.00000          1.40951162
   16        2.00000          1.40951162
   17        2.00000          1.40951162
   18        2.00000          1.40951162
   19        2.00000          1.40951162
   20        2.00000          1.40951162
   21        2.00000          1.40951162

---OUTPUT-----------------------------------------------------------------------

 Cartesian coordinates (xcart) [bohr]
  1.07387643750945E-19 -5.36938218754726E-20 -2.21659110819259E-19
  3.55012837082079E+00 -3.55012837082079E+00 -3.55012837082079E+00
 -3.55012837082079E+00  3.55012837082079E+00 -3.55012837082079E+00
 -3.55012837082079E+00 -3.55012837082079E+00  3.55012837082079E+00
  3.55012837082079E+00  3.55012837082079E+00  3.55012837082079E+00
  1.76029756437393E+00 -1.76029756437393E+00 -1.76029756437393E+00
 -1.76029756437393E+00  1.76029756437393E+00 -1.76029756437393E+00
 -1.76029756437393E+00 -1.76029756437393E+00  1.76029756437393E+00
  1.76029756437393E+00  1.76029756437393E+00  1.76029756437393E+00
  2.95774952351423E+00 -2.95774952351423E+00 -6.25718613221274E+00
  2.95774952351423E+00 -6.25718613221274E+00 -2.95774952351423E+00
  6.25718613221274E+00 -2.95774952351423E+00 -2.95774952351423E+00
 -2.95774952351423E+00  2.95774952351423E+00 -6.25718613221274E+00
 -2.95774952351423E+00  6.25718613221274E+00 -2.95774952351423E+00
 -6.25718613221274E+00  2.95774952351423E+00 -2.95774952351423E+00
 -2.95774952351423E+00 -2.95774952351423E+00  6.25718613221274E+00
 -2.95774952351423E+00 -6.25718613221274E+00  2.95774952351423E+00
 -6.25718613221274E+00 -2.95774952351423E+00  2.95774952351423E+00
  6.25718613221274E+00  2.95774952351423E+00  2.95774952351423E+00
  2.95774952351423E+00  6.25718613221274E+00  2.95774952351423E+00
  2.95774952351423E+00  2.95774952351423E+00  6.25718613221274E+00
 Reduced coordinates (xred)
  7.15917625006301E-21 -3.57958812503151E-21 -1.47772740546172E-20
  2.36675224721386E-01 -2.36675224721386E-01 -2.36675224721386E-01
 -2.36675224721386E-01  2.36675224721386E-01 -2.36675224721386E-01
 -2.36675224721386E-01 -2.36675224721386E-01  2.36675224721386E-01
  2.36675224721386E-01  2.36675224721386E-01  2.36675224721386E-01
  1.17353170958262E-01 -1.17353170958262E-01 -1.17353170958262E-01
 -1.17353170958262E-01  1.17353170958262E-01 -1.17353170958262E-01
 -1.17353170958262E-01 -1.17353170958262E-01  1.17353170958262E-01
  1.17353170958262E-01  1.17353170958262E-01  1.17353170958262E-01
  1.97183301567616E-01 -1.97183301567616E-01 -4.17145742147516E-01
  1.97183301567616E-01 -4.17145742147516E-01 -1.97183301567616E-01
  4.17145742147516E-01 -1.97183301567616E-01 -1.97183301567616E-01
 -1.97183301567616E-01  1.97183301567616E-01 -4.17145742147516E-01
 -1.97183301567616E-01  4.17145742147516E-01 -1.97183301567616E-01
 -4.17145742147516E-01  1.97183301567616E-01 -1.97183301567616E-01
 -1.97183301567616E-01 -1.97183301567616E-01  4.17145742147516E-01
 -1.97183301567616E-01 -4.17145742147516E-01  1.97183301567616E-01
 -4.17145742147516E-01 -1.97183301567616E-01  1.97183301567616E-01
  4.17145742147516E-01  1.97183301567616E-01  1.97183301567616E-01
  1.97183301567616E-01  4.17145742147516E-01  1.97183301567616E-01
  1.97183301567616E-01  1.97183301567616E-01  4.17145742147516E-01
 Cartesian forces (fcart) [Ha/bohr]; max,rms= 1.19419E-03 8.49094E-04 (free atoms)
 -3.09772049281573E-20 -2.06514699521048E-20  4.64658073922359E-20
 -3.11003822751902E-04  3.11003822751902E-04  3.11003822751902E-04
  3.11003822751902E-04 -3.11003822751902E-04  3.11003822751902E-04
  3.11003822751902E-04  3.11003822751902E-04 -3.11003822751902E-04
 -3.11003822751902E-04 -3.11003822751902E-04 -3.11003822751902E-04
  4.73924886881491E-04 -4.73924886881491E-04 -4.73924886881491E-04
 -4.73924886881491E-04  4.73924886881491E-04 -4.73924886881491E-04
 -4.73924886881491E-04 -4.73924886881491E-04  4.73924886881491E-04
  4.73924886881491E-04  4.73924886881491E-04  4.73924886881491E-04
  1.19418901775764E-03 -1.19418901775764E-03 -7.82010448179102E-04
  1.19418901775764E-03 -7.82010448179102E-04 -1.19418901775764E-03
  7.82010448179102E-04 -1.19418901775764E-03 -1.19418901775764E-03
 -1.19418901775764E-03  1.19418901775764E-03 -7.82010448179102E-04
 -1.19418901775764E-03  7.82010448179102E-04 -1.19418901775764E-03
 -7.82010448179102E-04  1.19418901775764E-03 -1.19418901775764E-03
 -1.19418901775764E-03 -1.19418901775764E-03  7.82010448179102E-04
 -1.19418901775764E-03 -7.82010448179102E-04  1.19418901775764E-03
 -7.82010448179102E-04 -1.19418901775764E-03  1.19418901775764E-03
  7.82010448179102E-04  1.19418901775764E-03  1.19418901775764E-03
  1.19418901775764E-03  7.82010448179102E-04  1.19418901775764E-03
  1.19418901775764E-03  1.19418901775764E-03  7.82010448179102E-04
 Reduced forces (fred)
  4.64658073922359E-19  3.09772049281573E-19 -6.96987110883538E-19
  4.66505734127852E-03 -4.66505734127852E-03 -4.66505734127852E-03
 -4.66505734127852E-03  4.66505734127852E-03 -4.66505734127852E-03
 -4.66505734127852E-03 -4.66505734127852E-03  4.66505734127852E-03
  4.66505734127852E-03  4.66505734127852E-03  4.66505734127852E-03
 -7.10887330322236E-03  7.10887330322236E-03  7.10887330322236E-03
  7.10887330322236E-03 -7.10887330322236E-03  7.10887330322236E-03
  7.10887330322237E-03  7.10887330322236E-03 -7.10887330322236E-03
 -7.10887330322236E-03 -7.10887330322236E-03 -7.10887330322236E-03
 -1.79128352663646E-02  1.79128352663646E-02  1.17301567226865E-02
 -1.79128352663646E-02  1.17301567226865E-02  1.79128352663646E-02
 -1.17301567226865E-02  1.79128352663646E-02  1.79128352663646E-02
  1.79128352663646E-02 -1.79128352663646E-02  1.17301567226865E-02
  1.79128352663646E-02 -1.17301567226865E-02  1.79128352663646E-02
  1.17301567226865E-02 -1.79128352663646E-02  1.79128352663646E-02
  1.79128352663646E-02  1.79128352663646E-02 -1.17301567226865E-02
  1.79128352663646E-02  1.17301567226865E-02 -1.79128352663646E-02
  1.17301567226865E-02  1.79128352663646E-02 -1.79128352663646E-02
 -1.17301567226865E-02 -1.79128352663646E-02 -1.79128352663646E-02
 -1.79128352663646E-02 -1.17301567226865E-02 -1.79128352663646E-02
 -1.79128352663646E-02 -1.79128352663646E-02 -1.17301567226865E-02
 Total energy (etotal) [Ha]= -9.21809262122555E+01

 Difference of energy with previous step (new-old):
           Absolute (Ha)=-2.67308E-04
           Relative     =-2.89982E-06

--- Iteration: (  3/100) Internal Cycle: (1/1)
--------------------------------------------------------------------------------

---SELF-CONSISTENT-FIELD CONVERGENCE--------------------------------------------

--- !BeginCycle
iteration_state: {dtset: 1, itime: 3, icycle: 1, }
solver: {iscf: 7, nstep: 100, nline: 4, wfoptalg: 0, }
tolerances: {tolrff: 2.00E-02, }
...

     iter   Etot(hartree)      deltaE(h)  residm     vres2    diffor    maxfor
 ETOT  1  -92.180880891229    -9.218E+01 7.200E-09 3.225E-01 7.010E-03 7.484E-03
 ETOT  2  -92.180973623091    -9.273E-05 2.908E-09 1.871E-02 9.775E-03 2.291E-03
 ETOT  3  -92.180979107640    -5.485E-06 2.800E-07 7.931E-03 2.282E-03 1.216E-03
 ETOT  4  -92.180979544054    -4.364E-07 1.839E-08 2.336E-03 3.823E-04 1.189E-03
 ETOT  5  -92.180979897935    -3.539E-07 8.058E-09 2.572E-04 1.864E-04 1.167E-03
 ETOT  6  -92.180979943264    -4.533E-08 2.490E-09 1.752E-05 1.550E-05 1.159E-03
 ETOT  7  -92.180979944796    -1.532E-09 1.476E-10 9.603E-07 4.651E-06 1.158E-03

 At SCF step    7, forces are sufficiently converged : 
  for the second time, max diff in force=  4.651E-06 is less than < tolrff=  2.000E-02 times max force

 Cartesian components of stress tensor (hartree/bohr^3)
  sigma(1 1)=  9.91137793E-04  sigma(3 2)=  0.00000000E+00
  sigma(2 2)=  9.91137793E-04  sigma(3 1)=  0.00000000E+00
  sigma(3 3)=  9.91137793E-04  sigma(2 1)=  0.00000000E+00


--- !ResultsGS
iteration_state: {dtset: 1, itime: 3, icycle: 1, }
comment   : Summary of ground state results
lattice_vectors:
- [ 15.0000000,   0.0000000,   0.0000000, ]
- [  0.0000000,  15.0000000,   0.0000000, ]
- [  0.0000000,   0.0000000,  15.0000000, ]
lattice_lengths: [  15.00000,   15.00000,   15.00000, ]
lattice_angles: [ 90.000,  90.000,  90.000, ] # degrees, (23, 13, 12)
lattice_volume:   3.3750000E+03
convergence: {deltae: -1.532E-09, res2:  9.603E-07, residm:  1.476E-10, diffor:  4.651E-06, }
etotal    :  -9.21809799E+01
entropy   :   0.00000000E+00
fermie    :  -1.58297439E-01
cartesian_stress_tensor: # hartree/bohr^3
- [  9.91137793E-04,   0.00000000E+00,   0.00000000E+00, ]
- [  0.00000000E+00,   9.91137793E-04,   0.00000000E+00, ]
- [  0.00000000E+00,   0.00000000E+00,   9.91137793E-04, ]
pressure_GPa:  -2.9160E+01
xred      :
- [  4.4208E-21,  -5.6341E-21,  -1.2430E-20, Si]
- [  2.3663E-01,  -2.3663E-01,  -2.3663E-01, Si]
- [ -2.3663E-01,   2.3663E-01,  -2.3663E-01, Si]
- [ -2.3663E-01,  -2.3663E-01,   2.3663E-01, Si]
- [  2.3663E-01,   2.3663E-01,   2.3663E-01, Si]
- [  1.1742E-01,  -1.1742E-01,  -1.1742E-01,  O]
- [ -1.1742E-01,   1.1742E-01,  -1.1742E-01,  O]
- [ -1.1742E-01,  -1.1742E-01,   1.1742E-01,  O]
- [  1.1742E-01,   1.1742E-01,   1.1742E-01,  O]
- [  1.9729E-01,  -1.9729E-01,  -4.1722E-01,  H]
- [  1.9729E-01,  -4.1722E-01,  -1.9729E-01,  H]
- [  4.1722E-01,  -1.9729E-01,  -1.9729E-01,  H]
- [ -1.9729E-01,   1.9729E-01,  -4.1722E-01,  H]
- [ -1.9729E-01,   4.1722E-01,  -1.9729E-01,  H]
- [ -4.1722E-01,   1.9729E-01,  -1.9729E-01,  H]
- [ -1.9729E-01,  -1.9729E-01,   4.1722E-01,  H]
- [ -1.9729E-01,  -4.1722E-01,   1.9729E-01,  H]
- [ -4.1722E-01,  -1.9729E-01,   1.9729E-01,  H]
- [  4.1722E-01,   1.9729E-01,   1.9729E-01,  H]
- [  1.9729E-01,   4.1722E-01,   1.9729E-01,  H]
- [  1.9729E-01,   1.9729E-01,   4.1722E-01,  H]
cartesian_forces: # hartree/bohr
- [ -3.09772049E-20,  -1.03257350E-20,   1.03257350E-20, ]
- [  4.79249504E-04,  -4.79249504E-04,  -4.79249504E-04, ]
- [ -4.79249504E-04,   4.79249504E-04,  -4.79249504E-04, ]
- [ -4.79249504E-04,  -4.79249504E-04,   4.79249504E-04, ]
- [  4.79249504E-04,   4.79249504E-04,   4.79249504E-04, ]
- [ -4.46614721E-04,   4.46614721E-04,   4.46614721E-04, ]
- [  4.46614721E-04,  -4.46614721E-04,   4.46614721E-04, ]
- [  4.46614721E-04,   4.46614721E-04,  -4.46614721E-04, ]
- [ -4.46614721E-04,  -4.46614721E-04,  -4.46614721E-04, ]
- [  1.15810917E-03,  -1.15810917E-03,  -6.41532479E-04, ]
- [  1.15810917E-03,  -6.41532479E-04,  -1.15810917E-03, ]
- [  6.41532479E-04,  -1.15810917E-03,  -1.15810917E-03, ]
- [ -1.15810917E-03,   1.15810917E-03,  -6.41532479E-04, ]
- [ -1.15810917E-03,   6.41532479E-04,  -1.15810917E-03, ]
- [ -6.41532479E-04,   1.15810917E-03,  -1.15810917E-03, ]
- [ -1.15810917E-03,  -1.15810917E-03,   6.41532479E-04, ]
- [ -1.15810917E-03,  -6.41532479E-04,   1.15810917E-03, ]
- [ -6.41532479E-04,  -1.15810917E-03,   1.15810917E-03, ]
- [  6.41532479E-04,   1.15810917E-03,   1.15810917E-03, ]
- [  1.15810917E-03,   6.41532479E-04,   1.15810917E-03, ]
- [  1.15810917E-03,   1.15810917E-03,   6.41532479E-04, ]
force_length_stats: {min:   3.42465886E-20, max:   1.75897630E-03, mean:   1.31058529E-03, }
...

 Integrated electronic density in atomic spheres:
 ------------------------------------------------
 Atom  Sphere_radius  Integrated_density
    1        2.00000          2.26550382
    2        2.00000          2.00385706
    3        2.00000          2.00385706
    4        2.00000          2.00385706
    5        2.00000          2.00385706
    6        2.00000          6.33439180
    7        2.00000          6.33439180
    8        2.00000          6.33439180
    9        2.00000          6.33439180
   10        2.00000          1.40972128
   11        2.00000          1.40972128
   12        2.00000          1.40972128
   13        2.00000          1.40972128
   14        2.00000          1.40972128
   15        2.00000          1.40972128
   16        2.00000          1.40972128
   17        2.00000          1.40972128
   18        2.00000          1.40972128
   19        2.00000          1.40972128
   20        2.00000          1.40972128
   21        2.00000          1.40972128

---OUTPUT-----------------------------------------------------------------------

 Cartesian coordinates (xcart) [bohr]
  6.63118331370109E-20 -8.45110825232682E-20 -1.86455720864792E-19
  3.54940767341653E+00 -3.54940767341653E+00 -3.54940767341653E+00
 -3.54940767341653E+00  3.54940767341653E+00 -3.54940767341653E+00
 -3.54940767341653E+00 -3.54940767341653E+00  3.54940767341653E+00
  3.54940767341653E+00  3.54940767341653E+00  3.54940767341653E+00
  1.76134529287443E+00 -1.76134529287443E+00 -1.76134529287443E+00
 -1.76134529287443E+00  1.76134529287443E+00 -1.76134529287443E+00
 -1.76134529287443E+00 -1.76134529287443E+00  1.76134529287443E+00
  1.76134529287443E+00  1.76134529287443E+00  1.76134529287443E+00
  2.95934239022233E+00 -2.95934239022233E+00 -6.25826848933186E+00
  2.95934239022233E+00 -6.25826848933186E+00 -2.95934239022233E+00
  6.25826848933186E+00 -2.95934239022233E+00 -2.95934239022233E+00
 -2.95934239022233E+00  2.95934239022233E+00 -6.25826848933186E+00
 -2.95934239022233E+00  6.25826848933186E+00 -2.95934239022233E+00
 -6.25826848933186E+00  2.95934239022233E+00 -2.95934239022233E+00
 -2.95934239022233E+00 -2.95934239022233E+00  6.25826848933186E+00
 -2.95934239022233E+00 -6.25826848933186E+00  2.95934239022233E+00
 -6.25826848933186E+00 -2.95934239022233E+00  2.95934239022233E+00
  6.25826848933186E+00  2.95934239022233E+00  2.95934239022233E+00
  2.95934239022233E+00  6.25826848933186E+00  2.95934239022233E+00
  2.95934239022233E+00  2.95934239022233E+00  6.25826848933186E+00
 Reduced coordinates (xred)
  4.42078887580073E-21 -5.63407216821788E-21 -1.24303813909862E-20
  2.36627178227768E-01 -2.36627178227768E-01 -2.36627178227768E-01
 -2.36627178227768E-01  2.36627178227768E-01 -2.36627178227768E-01
 -2.36627178227768E-01 -2.36627178227768E-01  2.36627178227768E-01
  2.36627178227768E-01  2.36627178227768E-01  2.36627178227768E-01
  1.17423019524962E-01 -1.17423019524962E-01 -1.17423019524962E-01
 -1.17423019524962E-01  1.17423019524962E-01 -1.17423019524962E-01
 -1.17423019524962E-01 -1.17423019524962E-01  1.17423019524962E-01
  1.17423019524962E-01  1.17423019524962E-01  1.17423019524962E-01
  1.97289492681489E-01 -1.97289492681489E-01 -4.17217899288791E-01
  1.97289492681489E-01 -4.17217899288791E-01 -1.97289492681489E-01
  4.17217899288791E-01 -1.97289492681489E-01 -1.97289492681489E-01
 -1.97289492681489E-01  1.97289492681489E-01 -4.17217899288791E-01
 -1.97289492681489E-01  4.17217899288791E-01 -1.97289492681489E-01
 -4.17217899288791E-01  1.97289492681489E-01 -1.97289492681489E-01
 -1.97289492681489E-01 -1.97289492681489E-01  4.17217899288791E-01
 -1.97289492681489E-01 -4.17217899288791E-01  1.97289492681489E-01
 -4.17217899288791E-01 -1.97289492681489E-01  1.97289492681489E-01
  4.17217899288791E-01  1.97289492681489E-01  1.97289492681489E-01
  1.97289492681489E-01  4.17217899288791E-01  1.97289492681489E-01
  1.97289492681489E-01  1.97289492681489E-01  4.17217899288791E-01
 Cartesian forces (fcart) [Ha/bohr]; max,rms= 1.15811E-03 8.19192E-04 (free atoms)
 -3.09772049281573E-20 -1.03257349760524E-20  1.03257349760524E-20
  4.79249503646109E-04 -4.79249503646109E-04 -4.79249503646109E-04
 -4.79249503646109E-04  4.79249503646109E-04 -4.79249503646109E-04
 -4.79249503646109E-04 -4.79249503646109E-04  4.79249503646109E-04
  4.79249503646109E-04  4.79249503646109E-04  4.79249503646109E-04
 -4.46614721318167E-04  4.46614721318167E-04  4.46614721318167E-04
  4.46614721318167E-04 -4.46614721318167E-04  4.46614721318167E-04
  4.46614721318167E-04  4.46614721318167E-04 -4.46614721318167E-04
 -4.46614721318167E-04 -4.46614721318167E-04 -4.46614721318167E-04
  1.15810917235998E-03 -1.15810917235998E-03 -6.41532479183155E-04
  1.15810917235998E-03 -6.41532479183155E-04 -1.15810917235998E-03
  6.41532479183155E-04 -1.15810917235998E-03 -1.15810917235998E-03
 -1.15810917235998E-03  1.15810917235998E-03 -6.41532479183155E-04
 -1.15810917235998E-03  6.41532479183155E-04 -1.15810917235998E-03
 -6.41532479183155E-04  1.15810917235998E-03 -1.15810917235998E-03
 -1.15810917235998E-03 -1.15810917235998E-03  6.41532479183155E-04
 -1.15810917235998E-03 -6.41532479183155E-04  1.15810917235998E-03
 -6.41532479183155E-04 -1.15810917235998E-03  1.15810917235998E-03
  6.41532479183155E-04  1.15810917235998E-03  1.15810917235998E-03
  1.15810917235998E-03  6.41532479183155E-04  1.15810917235998E-03
  1.15810917235998E-03  1.15810917235998E-03  6.41532479183155E-04
 Reduced forces (fred)
  4.64658073922359E-19  1.54886024640786E-19 -1.54886024640786E-19
 -7.18874255469163E-03  7.18874255469163E-03  7.18874255469163E-03
  7.18874255469163E-03 -7.18874255469163E-03  7.18874255469163E-03
  7.18874255469163E-03  7.18874255469163E-03 -7.18874255469163E-03
 -7.18874255469163E-03 -7.18874255469163E-03 -7.18874255469163E-03
  6.69922081977251E-03 -6.69922081977251E-03 -6.69922081977251E-03
 -6.69922081977251E-03  6.69922081977251E-03 -6.69922081977251E-03
 -6.69922081977251E-03 -6.69922081977251E-03  6.69922081977251E-03
  6.69922081977251E-03  6.69922081977251E-03  6.69922081977251E-03
 -1.73716375853997E-02  1.73716375853997E-02  9.62298718774732E-03
 -1.73716375853997E-02  9.62298718774732E-03  1.73716375853997E-02
 -9.62298718774732E-03  1.73716375853997E-02  1.73716375853997E-02
  1.73716375853997E-02 -1.73716375853997E-02  9.62298718774732E-03
  1.73716375853997E-02 -9.62298718774732E-03  1.73716375853997E-02
  9.62298718774732E-03 -1.73716375853997E-02  1.73716375853997E-02
  1.73716375853997E-02  1.73716375853997E-02 -9.62298718774733E-03
  1.73716375853997E-02  9.62298718774732E-03 -1.73716375853997E-02
  9.62298718774732E-03  1.73716375853997E-02 -1.73716375853997E-02
 -9.62298718774732E-03 -1.73716375853997E-02 -1.73716375853997E-02
 -1.73716375853997E-02 -9.62298718774732E-03 -1.73716375853997E-02
 -1.73716375853997E-02 -1.73716375853997E-02 -9.62298718774732E-03
 Total energy (etotal) [Ha]= -9.21809799447964E+01

 Difference of energy with previous step (new-old):
           Absolute (Ha)=-5.37325E-05
           Relative     =-5.82903E-07

--- Iteration: (  4/100) Internal Cycle: (1/1)
--------------------------------------------------------------------------------

---SELF-CONSISTENT-FIELD CONVERGENCE--------------------------------------------

--- !BeginCycle
iteration_state: {dtset: 1, itime: 4, icycle: 1, }
solver: {iscf: 7, nstep: 100, nline: 4, wfoptalg: 0, }
tolerances: {tolrff: 2.00E-02, }
...

     iter   Etot(hartree)      deltaE(h)  residm     vres2    diffor    maxfor
 ETOT  1  -92.180766007690    -9.218E+01 3.260E-08 1.530E+00 1.220E-02 1.176E-02
 ETOT  2  -92.181116039973    -3.500E-04 1.146E-08 1.126E-01 1.645E-02 4.690E-03
