
.Version 9.2.2 of ABINIT 
.(MPI version, prepared for a x86_64_darwin19.6.0_gnu10.2 computer) 

.Copyright (C) 1998-2020 ABINIT group . 
 ABINIT comes with ABSOLUTELY NO WARRANTY.
 It is free software, and you are welcome to redistribute it
 under certain conditions (GNU General Public License,
 see ~abinit/COPYING or http://www.gnu.org/copyleft/gpl.txt).

 ABINIT is a project of the Universite Catholique de Louvain,
 Corning Inc. and other collaborators, see ~abinit/doc/developers/contributors.txt .
 Please read https://docs.abinit.org/theory/acknowledgments for suggested
 acknowledgments of the ABINIT effort.
 For more information, see https://www.abinit.org .

.Starting date : Tue 16 Mar 2021.
- ( at 18h07 )
  
- input  file    -> sth1_lyp.in
- output file    -> sth1_lyp.abo
- root for input  files -> sth1_lypi
- root for output files -> sth1_lypo


 DATASET   11 : space group P-4 3 m (#215); Bravais cP (primitive cubic)
================================================================================
 Values of the parameters that define the memory need for DATASET 11.
     intxc =       0    ionmov =       0      iscf =       7    lmnmax =       6
     lnmax =       6     mgfft =      32  mpssoang =       3    mqgrid =    3001
     natom =      21  nloc_mem =       1    nspden =       2   nspinor =       1
    nsppol =       2      nsym =      24    n1xccc =    2501    ntypat =       3
    occopt =       3   xclevel =       2
-    mband =         100        mffmem =           1         mkmem =           4
       mpw =        1812          nfft =       32768          nkpt =           4
================================================================================
P This job should need less than                      42.161 Mbytes of memory.
  Rough estimation (10% accuracy) of disk space for files :
_ WF disk file :     22.121 Mbytes ; DEN or POT disk file :      0.502 Mbytes.
================================================================================


 DATASET   12 : space group P-4 3 m (#215); Bravais cP (primitive cubic)
================================================================================
 Values of the parameters that define the memory need for DATASET 12.
     intxc =       0    ionmov =       0      iscf =       7    lmnmax =       6
     lnmax =       6     mgfft =      50  mpssoang =       3    mqgrid =    3001
     natom =      21  nloc_mem =       1    nspden =       2   nspinor =       1
    nsppol =       2      nsym =      24    n1xccc =    2501    ntypat =       3
    occopt =       3   xclevel =       2
-    mband =         100        mffmem =           1         mkmem =           4
       mpw =        7574          nfft =      125000          nkpt =           4
================================================================================
P This job should need less than                     162.099 Mbytes of memory.
  Rough estimation (10% accuracy) of disk space for files :
_ WF disk file :     92.458 Mbytes ; DEN or POT disk file :      1.909 Mbytes.
================================================================================


 DATASET   13 : space group P-4 3 m (#215); Bravais cP (primitive cubic)
================================================================================
 Values of the parameters that define the memory need for DATASET 13.
     intxc =       0    ionmov =       0      iscf =       7    lmnmax =       6
     lnmax =       6     mgfft =      64  mpssoang =       3    mqgrid =    3095
     natom =      21  nloc_mem =       1    nspden =       2   nspinor =       1
    nsppol =       2      nsym =      24    n1xccc =    2501    ntypat =       3
    occopt =       3   xclevel =       2
-    mband =         100        mffmem =           1         mkmem =           4
       mpw =       15534          nfft =      262144          nkpt =           4
================================================================================
P This job should need less than                     332.982 Mbytes of memory.
  Rough estimation (10% accuracy) of disk space for files :
_ WF disk file :    189.626 Mbytes ; DEN or POT disk file :      4.002 Mbytes.
================================================================================


 DATASET   14 : space group P-4 3 m (#215); Bravais cP (primitive cubic)
================================================================================
 Values of the parameters that define the memory need for DATASET 14.
     intxc =       0    ionmov =       0      iscf =       7    lmnmax =       6
     lnmax =       6     mgfft =      75  mpssoang =       3    mqgrid =    3637
     natom =      21  nloc_mem =       1    nspden =       2   nspinor =       1
    nsppol =       2      nsym =      24    n1xccc =    2501    ntypat =       3
    occopt =       3   xclevel =       2
-    mband =         100        mffmem =           1         mkmem =           4
       mpw =       25191          nfft =      421875          nkpt =           4
================================================================================
P This job should need less than                     536.690 Mbytes of memory.
  Rough estimation (10% accuracy) of disk space for files :
_ WF disk file :    307.509 Mbytes ; DEN or POT disk file :      6.439 Mbytes.
================================================================================


 DATASET   15 : space group P-4 3 m (#215); Bravais cP (primitive cubic)
================================================================================
 Values of the parameters that define the memory need for DATASET 15.
     intxc =       0    ionmov =       0      iscf =       7    lmnmax =       6
     lnmax =       6     mgfft =      90  mpssoang =       3    mqgrid =    4108
     natom =      21  nloc_mem =       1    nspden =       2   nspinor =       1
    nsppol =       2      nsym =      24    n1xccc =    2501    ntypat =       3
    occopt =       3   xclevel =       2
-    mband =         100        mffmem =           1         mkmem =           4
       mpw =       36292          nfft =      729000          nkpt =           4
================================================================================
P This job should need less than                     837.166 Mbytes of memory.
  Rough estimation (10% accuracy) of disk space for files :
_ WF disk file :    443.020 Mbytes ; DEN or POT disk file :     11.126 Mbytes.
================================================================================


 DATASET   21 : space group P-4 3 m (#215); Bravais cP (primitive cubic)
================================================================================
 Values of the parameters that define the memory need for DATASET 21.
     intxc =       0    ionmov =       0      iscf =       7    lmnmax =       6
     lnmax =       6     mgfft =      64  mpssoang =       3    mqgrid =    3020
     natom =      21  nloc_mem =       1    nspden =       2   nspinor =       1
    nsppol =       2      nsym =      24    n1xccc =    2501    ntypat =       3
    occopt =       3   xclevel =       2
-    mband =         100        mffmem =           1         mkmem =           1
       mpw =       14363          nfft =      262144          nkpt =           1
================================================================================
P This job should need less than                     186.605 Mbytes of memory.
  Rough estimation (10% accuracy) of disk space for files :
_ WF disk file :     43.834 Mbytes ; DEN or POT disk file :      4.002 Mbytes.
================================================================================


 DATASET   22 : space group P-4 3 m (#215); Bravais cP (primitive cubic)
================================================================================
 Values of the parameters that define the memory need for DATASET 22.
     intxc =       0    ionmov =       0      iscf =       7    lmnmax =       6
     lnmax =       6     mgfft =     100  mpssoang =       3    mqgrid =    4870
     natom =      21  nloc_mem =       1    nspden =       2   nspinor =       1
    nsppol =       2      nsym =      24    n1xccc =    2501    ntypat =       3
    occopt =       3   xclevel =       2
-    mband =         100        mffmem =           1         mkmem =           1
       mpw =       60269          nfft =     1000000          nkpt =           1
================================================================================
P This job should need less than                     722.152 Mbytes of memory.
  Rough estimation (10% accuracy) of disk space for files :
_ WF disk file :    183.928 Mbytes ; DEN or POT disk file :     15.261 Mbytes.
================================================================================


 DATASET   23 : space group P-4 3 m (#215); Bravais cP (primitive cubic)
================================================================================
 Values of the parameters that define the memory need for DATASET 23.
     intxc =       0    ionmov =       0      iscf =       7    lmnmax =       6
     lnmax =       6     mgfft =     125  mpssoang =       3    mqgrid =    6189
     natom =      21  nloc_mem =       1    nspden =       2   nspinor =       1
    nsppol =       2      nsym =      24    n1xccc =    2501    ntypat =       3
    occopt =       3   xclevel =       2
-    mband =         100        mffmem =           1         mkmem =           1
       mpw =      124097          nfft =     1953125          nkpt =           1
================================================================================
P This job should need less than                    1426.878 Mbytes of memory.
  Rough estimation (10% accuracy) of disk space for files :
_ WF disk file :    378.716 Mbytes ; DEN or POT disk file :     29.804 Mbytes.
================================================================================


 DATASET   24 : space group P-4 3 m (#215); Bravais cP (primitive cubic)
================================================================================
 Values of the parameters that define the memory need for DATASET 24.
     intxc =       0    ionmov =       0      iscf =       7    lmnmax =       6
     lnmax =       6     mgfft =     150  mpssoang =       3    mqgrid =    7273
     natom =      21  nloc_mem =       1    nspden =       2   nspinor =       1
    nsppol =       2      nsym =      24    n1xccc =    2501    ntypat =       3
    occopt =       3   xclevel =       2
-    mband =         100        mffmem =           1         mkmem =           1
       mpw =      201485          nfft =     3375000          nkpt =           1
================================================================================
P This job should need less than                    2424.397 Mbytes of memory.
  Rough estimation (10% accuracy) of disk space for files :
_ WF disk file :    614.885 Mbytes ; DEN or POT disk file :     51.500 Mbytes.
================================================================================


 DATASET   25 : space group P-4 3 m (#215); Bravais cP (primitive cubic)
================================================================================
 Values of the parameters that define the memory need for DATASET 25.
     intxc =       0    ionmov =       0      iscf =       7    lmnmax =       6
     lnmax =       6     mgfft =     180  mpssoang =       3    mqgrid =    8215
     natom =      21  nloc_mem =       1    nspden =       2   nspinor =       1
    nsppol =       2      nsym =      24    n1xccc =    2501    ntypat =       3
    occopt =       3   xclevel =       2
-    mband =         100        mffmem =           1         mkmem =           1
       mpw =      290243          nfft =     5832000          nkpt =           1
================================================================================
P This job should need less than                    4009.137 Mbytes of memory.
  Rough estimation (10% accuracy) of disk space for files :
_ WF disk file :    885.753 Mbytes ; DEN or POT disk file :     88.991 Mbytes.
================================================================================

--------------------------------------------------------------------------------
------------- Echo of variables that govern the present computation ------------
--------------------------------------------------------------------------------
-
- outvars: echo of selected default values                                      
-   iomode0 =  0 , fftalg0 =312 , wfoptalg0 =  0
-
- outvars: echo of global parameters not present in the input file              
-  max_nthreads =    8
-
 -outvars: echo values of preprocessed input variables --------
            acell11    1.5000000000E+01  1.5000000000E+01  1.5000000000E+01 Bohr
            acell12    1.5000000000E+01  1.5000000000E+01  1.5000000000E+01 Bohr
            acell13    1.5000000000E+01  1.5000000000E+01  1.5000000000E+01 Bohr
            acell14    1.5000000000E+01  1.5000000000E+01  1.5000000000E+01 Bohr
            acell15    1.5000000000E+01  1.5000000000E+01  1.5000000000E+01 Bohr
            acell21    3.0000000000E+01  3.0000000000E+01  3.0000000000E+01 Bohr
            acell22    3.0000000000E+01  3.0000000000E+01  3.0000000000E+01 Bohr
            acell23    3.0000000000E+01  3.0000000000E+01  3.0000000000E+01 Bohr
            acell24    3.0000000000E+01  3.0000000000E+01  3.0000000000E+01 Bohr
            acell25    3.0000000000E+01  3.0000000000E+01  3.0000000000E+01 Bohr
              amu      1.00794000E+00  1.59994000E+01  2.80855000E+01
           charge      1.00000000E+00
           diemac      1.20000000E+01
             ecut11    5.00000000E+00 Hartree
             ecut12    1.30000000E+01 Hartree
             ecut13    2.10000000E+01 Hartree
             ecut14    2.90000000E+01 Hartree
             ecut15    3.70000000E+01 Hartree
             ecut21    5.00000000E+00 Hartree
             ecut22    1.30000000E+01 Hartree
             ecut23    2.10000000E+01 Hartree
             ecut24    2.90000000E+01 Hartree
             ecut25    3.70000000E+01 Hartree
-          fftalg         312
           istwfk21      1
           istwfk22      1
           istwfk23      1
           istwfk24      1
           istwfk25      1
              ixc        -402
           jdtset       11   12   13   14   15   21   22   23   24   25
              kpt11    1.25000000E-01  1.25000000E-01  1.25000000E-01
                       3.75000000E-01  1.25000000E-01  1.25000000E-01
                       3.75000000E-01  3.75000000E-01  1.25000000E-01
                       3.75000000E-01  3.75000000E-01  3.75000000E-01
              kpt12    1.25000000E-01  1.25000000E-01  1.25000000E-01
                       3.75000000E-01  1.25000000E-01  1.25000000E-01
                       3.75000000E-01  3.75000000E-01  1.25000000E-01
                       3.75000000E-01  3.75000000E-01  3.75000000E-01
              kpt13    1.25000000E-01  1.25000000E-01  1.25000000E-01
                       3.75000000E-01  1.25000000E-01  1.25000000E-01
                       3.75000000E-01  3.75000000E-01  1.25000000E-01
                       3.75000000E-01  3.75000000E-01  3.75000000E-01
              kpt14    1.25000000E-01  1.25000000E-01  1.25000000E-01
                       3.75000000E-01  1.25000000E-01  1.25000000E-01
                       3.75000000E-01  3.75000000E-01  1.25000000E-01
                       3.75000000E-01  3.75000000E-01  3.75000000E-01
              kpt15    1.25000000E-01  1.25000000E-01  1.25000000E-01
                       3.75000000E-01  1.25000000E-01  1.25000000E-01
                       3.75000000E-01  3.75000000E-01  1.25000000E-01
                       3.75000000E-01  3.75000000E-01  3.75000000E-01
              kpt21    0.00000000E+00  0.00000000E+00  0.00000000E+00
              kpt22    0.00000000E+00  0.00000000E+00  0.00000000E+00
              kpt23    0.00000000E+00  0.00000000E+00  0.00000000E+00
              kpt24    0.00000000E+00  0.00000000E+00  0.00000000E+00
              kpt25    0.00000000E+00  0.00000000E+00  0.00000000E+00
         kptns_hf11    1.25000000E-01  1.25000000E-01  1.25000000E-01
                       3.75000000E-01  1.25000000E-01  1.25000000E-01
                      -3.75000000E-01  1.25000000E-01  1.25000000E-01
                      -1.25000000E-01  1.25000000E-01  1.25000000E-01
                       1.25000000E-01  3.75000000E-01  1.25000000E-01
                       3.75000000E-01  3.75000000E-01  1.25000000E-01
                      -3.75000000E-01  3.75000000E-01  1.25000000E-01
                      -1.25000000E-01  3.75000000E-01  1.25000000E-01
                       1.25000000E-01 -3.75000000E-01  1.25000000E-01
                       3.75000000E-01 -3.75000000E-01  1.25000000E-01
                      -3.75000000E-01 -3.75000000E-01  1.25000000E-01
                      -1.25000000E-01 -3.75000000E-01  1.25000000E-01
                       1.25000000E-01 -1.25000000E-01  1.25000000E-01
                       3.75000000E-01 -1.25000000E-01  1.25000000E-01
                      -3.75000000E-01 -1.25000000E-01  1.25000000E-01
                      -1.25000000E-01 -1.25000000E-01  1.25000000E-01
                       1.25000000E-01  1.25000000E-01  3.75000000E-01
                       3.75000000E-01  1.25000000E-01  3.75000000E-01
                      -3.75000000E-01  1.25000000E-01  3.75000000E-01
                      -1.25000000E-01  1.25000000E-01  3.75000000E-01
                       1.25000000E-01  3.75000000E-01  3.75000000E-01
                       3.75000000E-01  3.75000000E-01  3.75000000E-01
                      -3.75000000E-01  3.75000000E-01  3.75000000E-01
                      -1.25000000E-01  3.75000000E-01  3.75000000E-01
                       1.25000000E-01 -3.75000000E-01  3.75000000E-01
                       3.75000000E-01 -3.75000000E-01  3.75000000E-01
                      -3.75000000E-01 -3.75000000E-01  3.75000000E-01
                      -1.25000000E-01 -3.75000000E-01  3.75000000E-01
                       1.25000000E-01 -1.25000000E-01  3.75000000E-01
                       3.75000000E-01 -1.25000000E-01  3.75000000E-01
                      -3.75000000E-01 -1.25000000E-01  3.75000000E-01
                      -1.25000000E-01 -1.25000000E-01  3.75000000E-01
                       1.25000000E-01  1.25000000E-01 -3.75000000E-01
                       3.75000000E-01  1.25000000E-01 -3.75000000E-01
                      -3.75000000E-01  1.25000000E-01 -3.75000000E-01
                      -1.25000000E-01  1.25000000E-01 -3.75000000E-01
                       1.25000000E-01  3.75000000E-01 -3.75000000E-01
                       3.75000000E-01  3.75000000E-01 -3.75000000E-01
                      -3.75000000E-01  3.75000000E-01 -3.75000000E-01
                      -1.25000000E-01  3.75000000E-01 -3.75000000E-01
                       1.25000000E-01 -3.75000000E-01 -3.75000000E-01
                       3.75000000E-01 -3.75000000E-01 -3.75000000E-01
                      -3.75000000E-01 -3.75000000E-01 -3.75000000E-01
                      -1.25000000E-01 -3.75000000E-01 -3.75000000E-01
                       1.25000000E-01 -1.25000000E-01 -3.75000000E-01
                       3.75000000E-01 -1.25000000E-01 -3.75000000E-01
                      -3.75000000E-01 -1.25000000E-01 -3.75000000E-01
                      -1.25000000E-01 -1.25000000E-01 -3.75000000E-01
                       1.25000000E-01  1.25000000E-01 -1.25000000E-01
                       3.75000000E-01  1.25000000E-01 -1.25000000E-01
         kptns_hf12    1.25000000E-01  1.25000000E-01  1.25000000E-01
                       3.75000000E-01  1.25000000E-01  1.25000000E-01
                      -3.75000000E-01  1.25000000E-01  1.25000000E-01
                      -1.25000000E-01  1.25000000E-01  1.25000000E-01
                       1.25000000E-01  3.75000000E-01  1.25000000E-01
                       3.75000000E-01  3.75000000E-01  1.25000000E-01
                      -3.75000000E-01  3.75000000E-01  1.25000000E-01
                      -1.25000000E-01  3.75000000E-01  1.25000000E-01
                       1.25000000E-01 -3.75000000E-01  1.25000000E-01
                       3.75000000E-01 -3.75000000E-01  1.25000000E-01
                      -3.75000000E-01 -3.75000000E-01  1.25000000E-01
                      -1.25000000E-01 -3.75000000E-01  1.25000000E-01
                       1.25000000E-01 -1.25000000E-01  1.25000000E-01
                       3.75000000E-01 -1.25000000E-01  1.25000000E-01
                      -3.75000000E-01 -1.25000000E-01  1.25000000E-01
                      -1.25000000E-01 -1.25000000E-01  1.25000000E-01
                       1.25000000E-01  1.25000000E-01  3.75000000E-01
                       3.75000000E-01  1.25000000E-01  3.75000000E-01
                      -3.75000000E-01  1.25000000E-01  3.75000000E-01
                      -1.25000000E-01  1.25000000E-01  3.75000000E-01
                       1.25000000E-01  3.75000000E-01  3.75000000E-01
                       3.75000000E-01  3.75000000E-01  3.75000000E-01
                      -3.75000000E-01  3.75000000E-01  3.75000000E-01
                      -1.25000000E-01  3.75000000E-01  3.75000000E-01
                       1.25000000E-01 -3.75000000E-01  3.75000000E-01
                       3.75000000E-01 -3.75000000E-01  3.75000000E-01
                      -3.75000000E-01 -3.75000000E-01  3.75000000E-01
                      -1.25000000E-01 -3.75000000E-01  3.75000000E-01
                       1.25000000E-01 -1.25000000E-01  3.75000000E-01
                       3.75000000E-01 -1.25000000E-01  3.75000000E-01
                      -3.75000000E-01 -1.25000000E-01  3.75000000E-01
                      -1.25000000E-01 -1.25000000E-01  3.75000000E-01
                       1.25000000E-01  1.25000000E-01 -3.75000000E-01
                       3.75000000E-01  1.25000000E-01 -3.75000000E-01
                      -3.75000000E-01  1.25000000E-01 -3.75000000E-01
                      -1.25000000E-01  1.25000000E-01 -3.75000000E-01
                       1.25000000E-01  3.75000000E-01 -3.75000000E-01
                       3.75000000E-01  3.75000000E-01 -3.75000000E-01
                      -3.75000000E-01  3.75000000E-01 -3.75000000E-01
                      -1.25000000E-01  3.75000000E-01 -3.75000000E-01
                       1.25000000E-01 -3.75000000E-01 -3.75000000E-01
                       3.75000000E-01 -3.75000000E-01 -3.75000000E-01
                      -3.75000000E-01 -3.75000000E-01 -3.75000000E-01
                      -1.25000000E-01 -3.75000000E-01 -3.75000000E-01
                       1.25000000E-01 -1.25000000E-01 -3.75000000E-01
                       3.75000000E-01 -1.25000000E-01 -3.75000000E-01
                      -3.75000000E-01 -1.25000000E-01 -3.75000000E-01
                      -1.25000000E-01 -1.25000000E-01 -3.75000000E-01
                       1.25000000E-01  1.25000000E-01 -1.25000000E-01
                       3.75000000E-01  1.25000000E-01 -1.25000000E-01
         kptns_hf13    1.25000000E-01  1.25000000E-01  1.25000000E-01
                       3.75000000E-01  1.25000000E-01  1.25000000E-01
                      -3.75000000E-01  1.25000000E-01  1.25000000E-01
                      -1.25000000E-01  1.25000000E-01  1.25000000E-01
                       1.25000000E-01  3.75000000E-01  1.25000000E-01
                       3.75000000E-01  3.75000000E-01  1.25000000E-01
                      -3.75000000E-01  3.75000000E-01  1.25000000E-01
                      -1.25000000E-01  3.75000000E-01  1.25000000E-01
                       1.25000000E-01 -3.75000000E-01  1.25000000E-01
                       3.75000000E-01 -3.75000000E-01  1.25000000E-01
                      -3.75000000E-01 -3.75000000E-01  1.25000000E-01
                      -1.25000000E-01 -3.75000000E-01  1.25000000E-01
                       1.25000000E-01 -1.25000000E-01  1.25000000E-01
                       3.75000000E-01 -1.25000000E-01  1.25000000E-01
                      -3.75000000E-01 -1.25000000E-01  1.25000000E-01
                      -1.25000000E-01 -1.25000000E-01  1.25000000E-01
                       1.25000000E-01  1.25000000E-01  3.75000000E-01
                       3.75000000E-01  1.25000000E-01  3.75000000E-01
                      -3.75000000E-01  1.25000000E-01  3.75000000E-01
                      -1.25000000E-01  1.25000000E-01  3.75000000E-01
                       1.25000000E-01  3.75000000E-01  3.75000000E-01
                       3.75000000E-01  3.75000000E-01  3.75000000E-01
                      -3.75000000E-01  3.75000000E-01  3.75000000E-01
                      -1.25000000E-01  3.75000000E-01  3.75000000E-01
                       1.25000000E-01 -3.75000000E-01  3.75000000E-01
                       3.75000000E-01 -3.75000000E-01  3.75000000E-01
                      -3.75000000E-01 -3.75000000E-01  3.75000000E-01
                      -1.25000000E-01 -3.75000000E-01  3.75000000E-01
                       1.25000000E-01 -1.25000000E-01  3.75000000E-01
                       3.75000000E-01 -1.25000000E-01  3.75000000E-01
                      -3.75000000E-01 -1.25000000E-01  3.75000000E-01
                      -1.25000000E-01 -1.25000000E-01  3.75000000E-01
                       1.25000000E-01  1.25000000E-01 -3.75000000E-01
                       3.75000000E-01  1.25000000E-01 -3.75000000E-01
                      -3.75000000E-01  1.25000000E-01 -3.75000000E-01
                      -1.25000000E-01  1.25000000E-01 -3.75000000E-01
                       1.25000000E-01  3.75000000E-01 -3.75000000E-01
                       3.75000000E-01  3.75000000E-01 -3.75000000E-01
                      -3.75000000E-01  3.75000000E-01 -3.75000000E-01
                      -1.25000000E-01  3.75000000E-01 -3.75000000E-01
                       1.25000000E-01 -3.75000000E-01 -3.75000000E-01
                       3.75000000E-01 -3.75000000E-01 -3.75000000E-01
                      -3.75000000E-01 -3.75000000E-01 -3.75000000E-01
                      -1.25000000E-01 -3.75000000E-01 -3.75000000E-01
                       1.25000000E-01 -1.25000000E-01 -3.75000000E-01
                       3.75000000E-01 -1.25000000E-01 -3.75000000E-01
                      -3.75000000E-01 -1.25000000E-01 -3.75000000E-01
                      -1.25000000E-01 -1.25000000E-01 -3.75000000E-01
                       1.25000000E-01  1.25000000E-01 -1.25000000E-01
                       3.75000000E-01  1.25000000E-01 -1.25000000E-01
         kptns_hf14    1.25000000E-01  1.25000000E-01  1.25000000E-01
                       3.75000000E-01  1.25000000E-01  1.25000000E-01
                      -3.75000000E-01  1.25000000E-01  1.25000000E-01
                      -1.25000000E-01  1.25000000E-01  1.25000000E-01
                       1.25000000E-01  3.75000000E-01  1.25000000E-01
                       3.75000000E-01  3.75000000E-01  1.25000000E-01
                      -3.75000000E-01  3.75000000E-01  1.25000000E-01
                      -1.25000000E-01  3.75000000E-01  1.25000000E-01
                       1.25000000E-01 -3.75000000E-01  1.25000000E-01
                       3.75000000E-01 -3.75000000E-01  1.25000000E-01
                      -3.75000000E-01 -3.75000000E-01  1.25000000E-01
                      -1.25000000E-01 -3.75000000E-01  1.25000000E-01
                       1.25000000E-01 -1.25000000E-01  1.25000000E-01
                       3.75000000E-01 -1.25000000E-01  1.25000000E-01
                      -3.75000000E-01 -1.25000000E-01  1.25000000E-01
                      -1.25000000E-01 -1.25000000E-01  1.25000000E-01
                       1.25000000E-01  1.25000000E-01  3.75000000E-01
                       3.75000000E-01  1.25000000E-01  3.75000000E-01
                      -3.75000000E-01  1.25000000E-01  3.75000000E-01
                      -1.25000000E-01  1.25000000E-01  3.75000000E-01
                       1.25000000E-01  3.75000000E-01  3.75000000E-01
                       3.75000000E-01  3.75000000E-01  3.75000000E-01
                      -3.75000000E-01  3.75000000E-01  3.75000000E-01
                      -1.25000000E-01  3.75000000E-01  3.75000000E-01
                       1.25000000E-01 -3.75000000E-01  3.75000000E-01
                       3.75000000E-01 -3.75000000E-01  3.75000000E-01
                      -3.75000000E-01 -3.75000000E-01  3.75000000E-01
                      -1.25000000E-01 -3.75000000E-01  3.75000000E-01
                       1.25000000E-01 -1.25000000E-01  3.75000000E-01
                       3.75000000E-01 -1.25000000E-01  3.75000000E-01
                      -3.75000000E-01 -1.25000000E-01  3.75000000E-01
                      -1.25000000E-01 -1.25000000E-01  3.75000000E-01
                       1.25000000E-01  1.25000000E-01 -3.75000000E-01
                       3.75000000E-01  1.25000000E-01 -3.75000000E-01
                      -3.75000000E-01  1.25000000E-01 -3.75000000E-01
                      -1.25000000E-01  1.25000000E-01 -3.75000000E-01
                       1.25000000E-01  3.75000000E-01 -3.75000000E-01
                       3.75000000E-01  3.75000000E-01 -3.75000000E-01
                      -3.75000000E-01  3.75000000E-01 -3.75000000E-01
                      -1.25000000E-01  3.75000000E-01 -3.75000000E-01
                       1.25000000E-01 -3.75000000E-01 -3.75000000E-01
                       3.75000000E-01 -3.75000000E-01 -3.75000000E-01
                      -3.75000000E-01 -3.75000000E-01 -3.75000000E-01
                      -1.25000000E-01 -3.75000000E-01 -3.75000000E-01
                       1.25000000E-01 -1.25000000E-01 -3.75000000E-01
                       3.75000000E-01 -1.25000000E-01 -3.75000000E-01
                      -3.75000000E-01 -1.25000000E-01 -3.75000000E-01
                      -1.25000000E-01 -1.25000000E-01 -3.75000000E-01
                       1.25000000E-01  1.25000000E-01 -1.25000000E-01
                       3.75000000E-01  1.25000000E-01 -1.25000000E-01
         kptns_hf15    1.25000000E-01  1.25000000E-01  1.25000000E-01
                       3.75000000E-01  1.25000000E-01  1.25000000E-01
                      -3.75000000E-01  1.25000000E-01  1.25000000E-01
                      -1.25000000E-01  1.25000000E-01  1.25000000E-01
                       1.25000000E-01  3.75000000E-01  1.25000000E-01
                       3.75000000E-01  3.75000000E-01  1.25000000E-01
                      -3.75000000E-01  3.75000000E-01  1.25000000E-01
                      -1.25000000E-01  3.75000000E-01  1.25000000E-01
                       1.25000000E-01 -3.75000000E-01  1.25000000E-01
                       3.75000000E-01 -3.75000000E-01  1.25000000E-01
                      -3.75000000E-01 -3.75000000E-01  1.25000000E-01
                      -1.25000000E-01 -3.75000000E-01  1.25000000E-01
                       1.25000000E-01 -1.25000000E-01  1.25000000E-01
                       3.75000000E-01 -1.25000000E-01  1.25000000E-01
                      -3.75000000E-01 -1.25000000E-01  1.25000000E-01
                      -1.25000000E-01 -1.25000000E-01  1.25000000E-01
                       1.25000000E-01  1.25000000E-01  3.75000000E-01
                       3.75000000E-01  1.25000000E-01  3.75000000E-01
                      -3.75000000E-01  1.25000000E-01  3.75000000E-01
                      -1.25000000E-01  1.25000000E-01  3.75000000E-01
                       1.25000000E-01  3.75000000E-01  3.75000000E-01
                       3.75000000E-01  3.75000000E-01  3.75000000E-01
                      -3.75000000E-01  3.75000000E-01  3.75000000E-01
                      -1.25000000E-01  3.75000000E-01  3.75000000E-01
                       1.25000000E-01 -3.75000000E-01  3.75000000E-01
                       3.75000000E-01 -3.75000000E-01  3.75000000E-01
                      -3.75000000E-01 -3.75000000E-01  3.75000000E-01
                      -1.25000000E-01 -3.75000000E-01  3.75000000E-01
                       1.25000000E-01 -1.25000000E-01  3.75000000E-01
                       3.75000000E-01 -1.25000000E-01  3.75000000E-01
                      -3.75000000E-01 -1.25000000E-01  3.75000000E-01
                      -1.25000000E-01 -1.25000000E-01  3.75000000E-01
                       1.25000000E-01  1.25000000E-01 -3.75000000E-01
                       3.75000000E-01  1.25000000E-01 -3.75000000E-01
                      -3.75000000E-01  1.25000000E-01 -3.75000000E-01
                      -1.25000000E-01  1.25000000E-01 -3.75000000E-01
                       1.25000000E-01  3.75000000E-01 -3.75000000E-01
                       3.75000000E-01  3.75000000E-01 -3.75000000E-01
                      -3.75000000E-01  3.75000000E-01 -3.75000000E-01
                      -1.25000000E-01  3.75000000E-01 -3.75000000E-01
                       1.25000000E-01 -3.75000000E-01 -3.75000000E-01
                       3.75000000E-01 -3.75000000E-01 -3.75000000E-01
                      -3.75000000E-01 -3.75000000E-01 -3.75000000E-01
                      -1.25000000E-01 -3.75000000E-01 -3.75000000E-01
                       1.25000000E-01 -1.25000000E-01 -3.75000000E-01
                       3.75000000E-01 -1.25000000E-01 -3.75000000E-01
                      -3.75000000E-01 -1.25000000E-01 -3.75000000E-01
                      -1.25000000E-01 -1.25000000E-01 -3.75000000E-01
                       1.25000000E-01  1.25000000E-01 -1.25000000E-01
                       3.75000000E-01  1.25000000E-01 -1.25000000E-01
         kptns_hf21    0.00000000E+00  0.00000000E+00  0.00000000E+00
         kptns_hf22    0.00000000E+00  0.00000000E+00  0.00000000E+00
         kptns_hf23    0.00000000E+00  0.00000000E+00  0.00000000E+00
         kptns_hf24    0.00000000E+00  0.00000000E+00  0.00000000E+00
         kptns_hf25    0.00000000E+00  0.00000000E+00  0.00000000E+00
                       outvar_i_n : Printing only first  50 k-points.
         kptrlatt11      4    0    0      0    4    0      0    0    4
         kptrlatt12      4    0    0      0    4    0      0    0    4
         kptrlatt13      4    0    0      0    4    0      0    0    4
         kptrlatt14      4    0    0      0    4    0      0    0    4
         kptrlatt15      4    0    0      0    4    0      0    0    4
         kptrlatt21      1    0    0      0    1    0      0    0    1
         kptrlatt22      1    0    0      0    1    0      0    0    1
         kptrlatt23      1    0    0      0    1    0      0    0    1
         kptrlatt24      1    0    0      0    1    0      0    0    1
         kptrlatt25      1    0    0      0    1    0      0    0    1
          kptrlen11    6.00000000E+01
          kptrlen12    6.00000000E+01
          kptrlen13    6.00000000E+01
          kptrlen14    6.00000000E+01
          kptrlen15    6.00000000E+01
          kptrlen21    3.00000000E+04
          kptrlen22    3.00000000E+04
          kptrlen23    3.00000000E+04
          kptrlen24    3.00000000E+04
          kptrlen25    3.00000000E+04
P           mkmem11         4
P           mkmem12         4
P           mkmem13         4
P           mkmem14         4
P           mkmem15         4
P           mkmem21         1
P           mkmem22         1
P           mkmem23         1
P           mkmem24         1
P           mkmem25         1
            natom          21
            nband11       100
            nband12       100
            nband13       100
            nband14       100
            nband15       100
            nband21       100
            nband22       100
            nband23       100
            nband24       100
            nband25       100
          nbandhf         100
           ndtset          10
            ngfft11        32      32      32
            ngfft12        50      50      50
            ngfft13        64      64      64
            ngfft14        75      75      75
            ngfft15        90      90      90
            ngfft21        64      64      64
            ngfft22       100     100     100
            ngfft23       125     125     125
            ngfft24       150     150     150
            ngfft25       180     180     180
             nkpt11         4
             nkpt12         4
             nkpt13         4
             nkpt14         4
             nkpt15         4
             nkpt21         1
             nkpt22         1
             nkpt23         1
             nkpt24         1
             nkpt25         1
           nkpthf11        64
           nkpthf12        64
           nkpthf13        64
           nkpthf14        64
           nkpthf15        64
           nkpthf21         1
           nkpthf22         1
           nkpthf23         1
           nkpthf24         1
           nkpthf25         1
           nspden           2
           nsppol           2
            nstep         100
             nsym          24
           ntypat           3
              occ11    1.000000  1.000000  1.000000  1.000000  1.000000  1.000000
                       1.000000  1.000000  1.000000  1.000000  1.000000  1.000000
                       1.000000  1.000000  1.000000  1.000000  1.000000  1.000000
                       1.000000  1.000000  1.000000  1.000000  1.000000  1.000000
                       1.000000  1.000000  1.000000  1.000000  0.000000  0.000000
                       0.000000  0.000000  0.000000  0.000000  0.000000  0.000000
                       0.000000  0.000000  0.000000  0.000000  0.000000  0.000000
                       0.000000  0.000000  0.000000  0.000000  0.000000  0.000000
                       0.000000  0.000000  0.000000  0.000000  0.000000  0.000000
                       0.000000  0.000000  0.000000  0.000000  0.000000  0.000000
                       0.000000  0.000000  0.000000  0.000000  0.000000  0.000000
                       0.000000  0.000000  0.000000  0.000000  0.000000  0.000000
                       0.000000  0.000000  0.000000  0.000000  0.000000  0.000000
                       0.000000  0.000000  0.000000  0.000000  0.000000  0.000000
                       0.000000  0.000000  0.000000  0.000000  0.000000  0.000000
                       0.000000  0.000000  0.000000  0.000000  0.000000  0.000000
                       0.000000  0.000000  0.000000  0.000000
                       1.000000  1.000000  1.000000  1.000000  1.000000  1.000000
                       1.000000  1.000000  1.000000  1.000000  1.000000  1.000000
                       1.000000  1.000000  1.000000  1.000000  1.000000  1.000000
                       1.000000  1.000000  1.000000  1.000000  1.000000  1.000000
                       1.000000  1.000000  1.000000  1.000000  0.000000  0.000000
                       0.000000  0.000000  0.000000  0.000000  0.000000  0.000000
                       0.000000  0.000000  0.000000  0.000000  0.000000  0.000000
                       0.000000  0.000000  0.000000  0.000000  0.000000  0.000000
                       0.000000  0.000000  0.000000  0.000000  0.000000  0.000000
                       0.000000  0.000000  0.000000  0.000000  0.000000  0.000000
                       0.000000  0.000000  0.000000  0.000000  0.000000  0.000000
                       0.000000  0.000000  0.000000  0.000000  0.000000  0.000000
                       0.000000  0.000000  0.000000  0.000000  0.000000  0.000000
                       0.000000  0.000000  0.000000  0.000000  0.000000  0.000000
                       0.000000  0.000000  0.000000  0.000000  0.000000  0.000000
                       0.000000  0.000000  0.000000  0.000000  0.000000  0.000000
                       0.000000  0.000000  0.000000  0.000000
                       1.000000  1.000000  1.000000  1.000000  1.000000  1.000000
                       1.000000  1.000000  1.000000  1.000000  1.000000  1.000000
                       1.000000  1.000000  1.000000  1.000000  1.000000  1.000000
                       1.000000  1.000000  1.000000  1.000000  1.000000  1.000000
                       1.000000  1.000000  1.000000  1.000000  0.000000  0.000000
                       0.000000  0.000000  0.000000  0.000000  0.000000  0.000000
                       0.000000  0.000000  0.000000  0.000000  0.000000  0.000000
                       0.000000  0.000000  0.000000  0.000000  0.000000  0.000000
                       0.000000  0.000000  0.000000  0.000000  0.000000  0.000000
                       0.000000  0.000000  0.000000  0.000000  0.000000  0.000000
                       0.000000  0.000000  0.000000  0.000000  0.000000  0.000000
                       0.000000  0.000000  0.000000  0.000000  0.000000  0.000000
                       0.000000  0.000000  0.000000  0.000000  0.000000  0.000000
                       0.000000  0.000000  0.000000  0.000000  0.000000  0.000000
                       0.000000  0.000000  0.000000  0.000000  0.000000  0.000000
                       0.000000  0.000000  0.000000  0.000000  0.000000  0.000000
                       0.000000  0.000000  0.000000  0.000000
                       1.000000  1.000000  1.000000  1.000000  1.000000  1.000000
                       1.000000  1.000000  1.000000  1.000000  1.000000  1.000000
                       1.000000  1.000000  1.000000  1.000000  1.000000  1.000000
                       1.000000  1.000000  1.000000  1.000000  1.000000  1.000000
                       1.000000  1.000000  1.000000  1.000000  0.000000  0.000000
                       0.000000  0.000000  0.000000  0.000000  0.000000  0.000000
                       0.000000  0.000000  0.000000  0.000000  0.000000  0.000000
                       0.000000  0.000000  0.000000  0.000000  0.000000  0.000000
                       0.000000  0.000000  0.000000  0.000000  0.000000  0.000000
                       0.000000  0.000000  0.000000  0.000000  0.000000  0.000000
                       0.000000  0.000000  0.000000  0.000000  0.000000  0.000000
                       0.000000  0.000000  0.000000  0.000000  0.000000  0.000000
                       0.000000  0.000000  0.000000  0.000000  0.000000  0.000000
                       0.000000  0.000000  0.000000  0.000000  0.000000  0.000000
                       0.000000  0.000000  0.000000  0.000000  0.000000  0.000000
                       0.000000  0.000000  0.000000  0.000000  0.000000  0.000000
                       0.000000  0.000000  0.000000  0.000000
                       1.000000  1.000000  1.000000  1.000000  1.000000  1.000000
                       1.000000  1.000000  1.000000  1.000000  1.000000  1.000000
                       1.000000  1.000000  1.000000  1.000000  1.000000  1.000000
                       1.000000  1.000000  1.000000  1.000000  1.000000  1.000000
                       1.000000  1.000000  1.000000  0.000000  0.000000  0.000000
                       0.000000  0.000000  0.000000  0.000000  0.000000  0.000000
                       0.000000  0.000000  0.000000  0.000000  0.000000  0.000000
                       0.000000  0.000000  0.000000  0.000000  0.000000  0.000000
                       0.000000  0.000000  0.000000  0.000000  0.000000  0.000000
                       0.000000  0.000000  0.000000  0.000000  0.000000  0.000000
                       0.000000  0.000000  0.000000  0.000000  0.000000  0.000000
                       0.000000  0.000000  0.000000  0.000000  0.000000  0.000000
                       0.000000  0.000000  0.000000  0.000000  0.000000  0.000000
                       0.000000  0.000000  0.000000  0.000000  0.000000  0.000000
                       0.000000  0.000000  0.000000  0.000000  0.000000  0.000000
                       0.000000  0.000000  0.000000  0.000000  0.000000  0.000000
                       0.000000  0.000000  0.000000  0.000000
                       1.000000  1.000000  1.000000  1.000000  1.000000  1.000000
                       1.000000  1.000000  1.000000  1.000000  1.000000  1.000000
                       1.000000  1.000000  1.000000  1.000000  1.000000  1.000000
                       1.000000  1.000000  1.000000  1.000000  1.000000  1.000000
                       1.000000  1.000000  1.000000  0.000000  0.000000  0.000000
                       0.000000  0.000000  0.000000  0.000000  0.000000  0.000000
                       0.000000  0.000000  0.000000  0.000000  0.000000  0.000000
                       0.000000  0.000000  0.000000  0.000000  0.000000  0.000000
                       0.000000  0.000000  0.000000  0.000000  0.000000  0.000000
                       0.000000  0.000000  0.000000  0.000000  0.000000  0.000000
                       0.000000  0.000000  0.000000  0.000000  0.000000  0.000000
                       0.000000  0.000000  0.000000  0.000000  0.000000  0.000000
                       0.000000  0.000000  0.000000  0.000000  0.000000  0.000000
                       0.000000  0.000000  0.000000  0.000000  0.000000  0.000000
                       0.000000  0.000000  0.000000  0.000000  0.000000  0.000000
                       0.000000  0.000000  0.000000  0.000000  0.000000  0.000000
                       0.000000  0.000000  0.000000  0.000000
                       1.000000  1.000000  1.000000  1.000000  1.000000  1.000000
                       1.000000  1.000000  1.000000  1.000000  1.000000  1.000000
                       1.000000  1.000000  1.000000  1.000000  1.000000  1.000000
                       1.000000  1.000000  1.000000  1.000000  1.000000  1.000000
                       1.000000  1.000000  1.000000  0.000000  0.000000  0.000000
                       0.000000  0.000000  0.000000  0.000000  0.000000  0.000000
                       0.000000  0.000000  0.000000  0.000000  0.000000  0.000000
                       0.000000  0.000000  0.000000  0.000000  0.000000  0.000000
                       0.000000  0.000000  0.000000  0.000000  0.000000  0.000000
                       0.000000  0.000000  0.000000  0.000000  0.000000  0.000000
                       0.000000  0.000000  0.000000  0.000000  0.000000  0.000000
                       0.000000  0.000000  0.000000  0.000000  0.000000  0.000000
                       0.000000  0.000000  0.000000  0.000000  0.000000  0.000000
                       0.000000  0.000000  0.000000  0.000000  0.000000  0.000000
                       0.000000  0.000000  0.000000  0.000000  0.000000  0.000000
                       0.000000  0.000000  0.000000  0.000000  0.000000  0.000000
                       0.000000  0.000000  0.000000  0.000000
                       1.000000  1.000000  1.000000  1.000000  1.000000  1.000000
                       1.000000  1.000000  1.000000  1.000000  1.000000  1.000000
                       1.000000  1.000000  1.000000  1.000000  1.000000  1.000000
                       1.000000  1.000000  1.000000  1.000000  1.000000  1.000000
                       1.000000  1.000000  1.000000  0.000000  0.000000  0.000000
                       0.000000  0.000000  0.000000  0.000000  0.000000  0.000000
                       0.000000  0.000000  0.000000  0.000000  0.000000  0.000000
                       0.000000  0.000000  0.000000  0.000000  0.000000  0.000000
                       0.000000  0.000000  0.000000  0.000000  0.000000  0.000000
                       0.000000  0.000000  0.000000  0.000000  0.000000  0.000000
                       0.000000  0.000000  0.000000  0.000000  0.000000  0.000000
                       0.000000  0.000000  0.000000  0.000000  0.000000  0.000000
                       0.000000  0.000000  0.000000  0.000000  0.000000  0.000000
                       0.000000  0.000000  0.000000  0.000000  0.000000  0.000000
                       0.000000  0.000000  0.000000  0.000000  0.000000  0.000000
                       0.000000  0.000000  0.000000  0.000000  0.000000  0.000000
                       0.000000  0.000000  0.000000  0.000000
              occ12    1.000000  1.000000  1.000000  1.000000  1.000000  1.000000
                       1.000000  1.000000  1.000000  1.000000  1.000000  1.000000
                       1.000000  1.000000  1.000000  1.000000  1.000000  1.000000
                       1.000000  1.000000  1.000000  1.000000  1.000000  1.000000
                       1.000000  1.000000  1.000000  1.000000  0.000000  0.000000
                       0.000000  0.000000  0.000000  0.000000  0.000000  0.000000
                       0.000000  0.000000  0.000000  0.000000  0.000000  0.000000
                       0.000000  0.000000  0.000000  0.000000  0.000000  0.000000
                       0.000000  0.000000  0.000000  0.000000  0.000000  0.000000
                       0.000000  0.000000  0.000000  0.000000  0.000000  0.000000
                       0.000000  0.000000  0.000000  0.000000  0.000000  0.000000
                       0.000000  0.000000  0.000000  0.000000  0.000000  0.000000
                       0.000000  0.000000  0.000000  0.000000  0.000000  0.000000
                       0.000000  0.000000  0.000000  0.000000  0.000000  0.000000
                       0.000000  0.000000  0.000000  0.000000  0.000000  0.000000
                       0.000000  0.000000  0.000000  0.000000  0.000000  0.000000
                       0.000000  0.000000  0.000000  0.000000
                       1.000000  1.000000  1.000000  1.000000  1.000000  1.000000
                       1.000000  1.000000  1.000000  1.000000  1.000000  1.000000
                       1.000000  1.000000  1.000000  1.000000  1.000000  1.000000
                       1.000000  1.000000  1.000000  1.000000  1.000000  1.000000
                       1.000000  1.000000  1.000000  1.000000  0.000000  0.000000
                       0.000000  0.000000  0.000000  0.000000  0.000000  0.000000
                       0.000000  0.000000  0.000000  0.000000  0.000000  0.000000
                       0.000000  0.000000  0.000000  0.000000  0.000000  0.000000
                       0.000000  0.000000  0.000000  0.000000  0.000000  0.000000
                       0.000000  0.000000  0.000000  0.000000  0.000000  0.000000
                       0.000000  0.000000  0.000000  0.000000  0.000000  0.000000
                       0.000000  0.000000  0.000000  0.000000  0.000000  0.000000
                       0.000000  0.000000  0.000000  0.000000  0.000000  0.000000
                       0.000000  0.000000  0.000000  0.000000  0.000000  0.000000
                       0.000000  0.000000  0.000000  0.000000  0.000000  0.000000
                       0.000000  0.000000  0.000000  0.000000  0.000000  0.000000
                       0.000000  0.000000  0.000000  0.000000
                       1.000000  1.000000  1.000000  1.000000  1.000000  1.000000
                       1.000000  1.000000  1.000000  1.000000  1.000000  1.000000
                       1.000000  1.000000  1.000000  1.000000  1.000000  1.000000
                       1.000000  1.000000  1.000000  1.000000  1.000000  1.000000
                       1.000000  1.000000  1.000000  1.000000  0.000000  0.000000
                       0.000000  0.000000  0.000000  0.000000  0.000000  0.000000
                       0.000000  0.000000  0.000000  0.000000  0.000000  0.000000
                       0.000000  0.000000  0.000000  0.000000  0.000000  0.000000
                       0.000000  0.000000  0.000000  0.000000  0.000000  0.000000
                       0.000000  0.000000  0.000000  0.000000  0.000000  0.000000
                       0.000000  0.000000  0.000000  0.000000  0.000000  0.000000
                       0.000000  0.000000  0.000000  0.000000  0.000000  0.000000
                       0.000000  0.000000  0.000000  0.000000  0.000000  0.000000
                       0.000000  0.000000  0.000000  0.000000  0.000000  0.000000
                       0.000000  0.000000  0.000000  0.000000  0.000000  0.000000
                       0.000000  0.000000  0.000000  0.000000  0.000000  0.000000
                       0.000000  0.000000  0.000000  0.000000
                       1.000000  1.000000  1.000000  1.000000  1.000000  1.000000
                       1.000000  1.000000  1.000000  1.000000  1.000000  1.000000
                       1.000000  1.000000  1.000000  1.000000  1.000000  1.000000
                       1.000000  1.000000  1.000000  1.000000  1.000000  1.000000
                       1.000000  1.000000  1.000000  1.000000  0.000000  0.000000
                       0.000000  0.000000  0.000000  0.000000  0.000000  0.000000
                       0.000000  0.000000  0.000000  0.000000  0.000000  0.000000
                       0.000000  0.000000  0.000000  0.000000  0.000000  0.000000
                       0.000000  0.000000  0.000000  0.000000  0.000000  0.000000
                       0.000000  0.000000  0.000000  0.000000  0.000000  0.000000
                       0.000000  0.000000  0.000000  0.000000  0.000000  0.000000
                       0.000000  0.000000  0.000000  0.000000  0.000000  0.000000
                       0.000000  0.000000  0.000000  0.000000  0.000000  0.000000
                       0.000000  0.000000  0.000000  0.000000  0.000000  0.000000
                       0.000000  0.000000  0.000000  0.000000  0.000000  0.000000
                       0.000000  0.000000  0.000000  0.000000  0.000000  0.000000
                       0.000000  0.000000  0.000000  0.000000
                       1.000000  1.000000  1.000000  1.000000  1.000000  1.000000
                       1.000000  1.000000  1.000000  1.000000  1.000000  1.000000
                       1.000000  1.000000  1.000000  1.000000  1.000000  1.000000
                       1.000000  1.000000  1.000000  1.000000  1.000000  1.000000
                       1.000000  1.000000  1.000000  0.000000  0.000000  0.000000
                       0.000000  0.000000  0.000000  0.000000  0.000000  0.000000
                       0.000000  0.000000  0.000000  0.000000  0.000000  0.000000
                       0.000000  0.000000  0.000000  0.000000  0.000000  0.000000
                       0.000000  0.000000  0.000000  0.000000  0.000000  0.000000
                       0.000000  0.000000  0.000000  0.000000  0.000000  0.000000
                       0.000000  0.000000  0.000000  0.000000  0.000000  0.000000
                       0.000000  0.000000  0.000000  0.000000  0.000000  0.000000
                       0.000000  0.000000  0.000000  0.000000  0.000000  0.000000
                       0.000000  0.000000  0.000000  0.000000  0.000000  0.000000
                       0.000000  0.000000  0.000000  0.000000  0.000000  0.000000
                       0.000000  0.000000  0.000000  0.000000  0.000000  0.000000
                       0.000000  0.000000  0.000000  0.000000
                       1.000000  1.000000  1.000000  1.000000  1.000000  1.000000
                       1.000000  1.000000  1.000000  1.000000  1.000000  1.000000
                       1.000000  1.000000  1.000000  1.000000  1.000000  1.000000
                       1.000000  1.000000  1.000000  1.000000  1.000000  1.000000
                       1.000000  1.000000  1.000000  0.000000  0.000000  0.000000
                       0.000000  0.000000  0.000000  0.000000  0.000000  0.000000
                       0.000000  0.000000  0.000000  0.000000  0.000000  0.000000
                       0.000000  0.000000  0.000000  0.000000  0.000000  0.000000
                       0.000000  0.000000  0.000000  0.000000  0.000000  0.000000
                       0.000000  0.000000  0.000000  0.000000  0.000000  0.000000
                       0.000000  0.000000  0.000000  0.000000  0.000000  0.000000
                       0.000000  0.000000  0.000000  0.000000  0.000000  0.000000
                       0.000000  0.000000  0.000000  0.000000  0.000000  0.000000
                       0.000000  0.000000  0.000000  0.000000  0.000000  0.000000
                       0.000000  0.000000  0.000000  0.000000  0.000000  0.000000
                       0.000000  0.000000  0.000000  0.000000  0.000000  0.000000
                       0.000000  0.000000  0.000000  0.000000
                       1.000000  1.000000  1.000000  1.000000  1.000000  1.000000
                       1.000000  1.000000  1.000000  1.000000  1.000000  1.000000
                       1.000000  1.000000  1.000000  1.000000  1.000000  1.000000
                       1.000000  1.000000  1.000000  1.000000  1.000000  1.000000
                       1.000000  1.000000  1.000000  0.000000  0.000000  0.000000
                       0.000000  0.000000  0.000000  0.000000  0.000000  0.000000
                       0.000000  0.000000  0.000000  0.000000  0.000000  0.000000
                       0.000000  0.000000  0.000000  0.000000  0.000000  0.000000
                       0.000000  0.000000  0.000000  0.000000  0.000000  0.000000
                       0.000000  0.000000  0.000000  0.000000  0.000000  0.000000
                       0.000000  0.000000  0.000000  0.000000  0.000000  0.000000
                       0.000000  0.000000  0.000000  0.000000  0.000000  0.000000
                       0.000000  0.000000  0.000000  0.000000  0.000000  0.000000
                       0.000000  0.000000  0.000000  0.000000  0.000000  0.000000
                       0.000000  0.000000  0.000000  0.000000  0.000000  0.000000
                       0.000000  0.000000  0.000000  0.000000  0.000000  0.000000
                       0.000000  0.000000  0.000000  0.000000
                       1.000000  1.000000  1.000000  1.000000  1.000000  1.000000
                       1.000000  1.000000  1.000000  1.000000  1.000000  1.000000
                       1.000000  1.000000  1.000000  1.000000  1.000000  1.000000
                       1.000000  1.000000  1.000000  1.000000  1.000000  1.000000
                       1.000000  1.000000  1.000000  0.000000  0.000000  0.000000
                       0.000000  0.000000  0.000000  0.000000  0.000000  0.000000
                       0.000000  0.000000  0.000000  0.000000  0.000000  0.000000
                       0.000000  0.000000  0.000000  0.000000  0.000000  0.000000
                       0.000000  0.000000  0.000000  0.000000  0.000000  0.000000
                       0.000000  0.000000  0.000000  0.000000  0.000000  0.000000
                       0.000000  0.000000  0.000000  0.000000  0.000000  0.000000
                       0.000000  0.000000  0.000000  0.000000  0.000000  0.000000
                       0.000000  0.000000  0.000000  0.000000  0.000000  0.000000
                       0.000000  0.000000  0.000000  0.000000  0.000000  0.000000
                       0.000000  0.000000  0.000000  0.000000  0.000000  0.000000
                       0.000000  0.000000  0.000000  0.000000  0.000000  0.000000
                       0.000000  0.000000  0.000000  0.000000
              occ13    1.000000  1.000000  1.000000  1.000000  1.000000  1.000000
                       1.000000  1.000000  1.000000  1.000000  1.000000  1.000000
                       1.000000  1.000000  1.000000  1.000000  1.000000  1.000000
                       1.000000  1.000000  1.000000  1.000000  1.000000  1.000000
                       1.000000  1.000000  1.000000  1.000000  0.000000  0.000000
                       0.000000  0.000000  0.000000  0.000000  0.000000  0.000000
                       0.000000  0.000000  0.000000  0.000000  0.000000  0.000000
                       0.000000  0.000000  0.000000  0.000000  0.000000  0.000000
                       0.000000  0.000000  0.000000  0.000000  0.000000  0.000000
                       0.000000  0.000000  0.000000  0.000000  0.000000  0.000000
                       0.000000  0.000000  0.000000  0.000000  0.000000  0.000000
                       0.000000  0.000000  0.000000  0.000000  0.000000  0.000000
                       0.000000  0.000000  0.000000  0.000000  0.000000  0.000000
                       0.000000  0.000000  0.000000  0.000000  0.000000  0.000000
                       0.000000  0.000000  0.000000  0.000000  0.000000  0.000000
                       0.000000  0.000000  0.000000  0.000000  0.000000  0.000000
                       0.000000  0.000000  0.000000  0.000000
                       1.000000  1.000000  1.000000  1.000000  1.000000  1.000000
                       1.000000  1.000000  1.000000  1.000000  1.000000  1.000000
                       1.000000  1.000000  1.000000  1.000000  1.000000  1.000000
                       1.000000  1.000000  1.000000  1.000000  1.000000  1.000000
                       1.000000  1.000000  1.000000  1.000000  0.000000  0.000000
                       0.000000  0.000000  0.000000  0.000000  0.000000  0.000000
                       0.000000  0.000000  0.000000  0.000000  0.000000  0.000000
                       0.000000  0.000000  0.000000  0.000000  0.000000  0.000000
                       0.000000  0.000000  0.000000  0.000000  0.000000  0.000000
                       0.000000  0.000000  0.000000  0.000000  0.000000  0.000000
                       0.000000  0.000000  0.000000  0.000000  0.000000  0.000000
                       0.000000  0.000000  0.000000  0.000000  0.000000  0.000000
                       0.000000  0.000000  0.000000  0.000000  0.000000  0.000000
                       0.000000  0.000000  0.000000  0.000000  0.000000  0.000000
                       0.000000  0.000000  0.000000  0.000000  0.000000  0.000000
                       0.000000  0.000000  0.000000  0.000000  0.000000  0.000000
                       0.000000  0.000000  0.000000  0.000000
                       1.000000  1.000000  1.000000  1.000000  1.000000  1.000000
                       1.000000  1.000000  1.000000  1.000000  1.000000  1.000000
                       1.000000  1.000000  1.000000  1.000000  1.000000  1.000000
                       1.000000  1.000000  1.000000  1.000000  1.000000  1.000000
                       1.000000  1.000000  1.000000  1.000000  0.000000  0.000000
                       0.000000  0.000000  0.000000  0.000000  0.000000  0.000000
                       0.000000  0.000000  0.000000  0.000000  0.000000  0.000000
                       0.000000  0.000000  0.000000  0.000000  0.000000  0.000000
                       0.000000  0.000000  0.000000  0.000000  0.000000  0.000000
                       0.000000  0.000000  0.000000  0.000000  0.000000  0.000000
                       0.000000  0.000000  0.000000  0.000000  0.000000  0.000000
                       0.000000  0.000000  0.000000  0.000000  0.000000  0.000000
                       0.000000  0.000000  0.000000  0.000000  0.000000  0.000000
                       0.000000  0.000000  0.000000  0.000000  0.000000  0.000000
                       0.000000  0.000000  0.000000  0.000000  0.000000  0.000000
                       0.000000  0.000000  0.000000  0.000000  0.000000  0.000000
                       0.000000  0.000000  0.000000  0.000000
                       1.000000  1.000000  1.000000  1.000000  1.000000  1.000000
                       1.000000  1.000000  1.000000  1.000000  1.000000  1.000000
                       1.000000  1.000000  1.000000  1.000000  1.000000  1.000000
                       1.000000  1.000000  1.000000  1.000000  1.000000  1.000000
                       1.000000  1.000000  1.000000  1.000000  0.000000  0.000000
                       0.000000  0.000000  0.000000  0.000000  0.000000  0.000000
                       0.000000  0.000000  0.000000  0.000000  0.000000  0.000000
                       0.000000  0.000000  0.000000  0.000000  0.000000  0.000000
                       0.000000  0.000000  0.000000  0.000000  0.000000  0.000000
                       0.000000  0.000000  0.000000  0.000000  0.000000  0.000000
                       0.000000  0.000000  0.000000  0.000000  0.000000  0.000000
                       0.000000  0.000000  0.000000  0.000000  0.000000  0.000000
                       0.000000  0.000000  0.000000  0.000000  0.000000  0.000000
                       0.000000  0.000000  0.000000  0.000000  0.000000  0.000000
                       0.000000  0.000000  0.000000  0.000000  0.000000  0.000000
                       0.000000  0.000000  0.000000  0.000000  0.000000  0.000000
                       0.000000  0.000000  0.000000  0.000000
                       1.000000  1.000000  1.000000  1.000000  1.000000  1.000000
                       1.000000  1.000000  1.000000  1.000000  1.000000  1.000000
                       1.000000  1.000000  1.000000  1.000000  1.000000  1.000000
                       1.000000  1.000000  1.000000  1.000000  1.000000  1.000000
                       1.000000  1.000000  1.000000  0.000000  0.000000  0.000000
                       0.000000  0.000000  0.000000  0.000000  0.000000  0.000000
                       0.000000  0.000000  0.000000  0.000000  0.000000  0.000000
                       0.000000  0.000000  0.000000  0.000000  0.000000  0.000000
                       0.000000  0.000000  0.000000  0.000000  0.000000  0.000000
                       0.000000  0.000000  0.000000  0.000000  0.000000  0.000000
                       0.000000  0.000000  0.000000  0.000000  0.000000  0.000000
                       0.000000  0.000000  0.000000  0.000000  0.000000  0.000000
                       0.000000  0.000000  0.000000  0.000000  0.000000  0.000000
                       0.000000  0.000000  0.000000  0.000000  0.000000  0.000000
                       0.000000  0.000000  0.000000  0.000000  0.000000  0.000000
                       0.000000  0.000000  0.000000  0.000000  0.000000  0.000000
                       0.000000  0.000000  0.000000  0.000000
                       1.000000  1.000000  1.000000  1.000000  1.000000  1.000000
                       1.000000  1.000000  1.000000  1.000000  1.000000  1.000000
                       1.000000  1.000000  1.000000  1.000000  1.000000  1.000000
                       1.000000  1.000000  1.000000  1.000000  1.000000  1.000000
                       1.000000  1.000000  1.000000  0.000000  0.000000  0.000000
                       0.000000  0.000000  0.000000  0.000000  0.000000  0.000000
                       0.000000  0.000000  0.000000  0.000000  0.000000  0.000000
                       0.000000  0.000000  0.000000  0.000000  0.000000  0.000000
                       0.000000  0.000000  0.000000  0.000000  0.000000  0.000000
                       0.000000  0.000000  0.000000  0.000000  0.000000  0.000000
                       0.000000  0.000000  0.000000  0.000000  0.000000  0.000000
                       0.000000  0.000000  0.000000  0.000000  0.000000  0.000000
                       0.000000  0.000000  0.000000  0.000000  0.000000  0.000000
                       0.000000  0.000000  0.000000  0.000000  0.000000  0.000000
                       0.000000  0.000000  0.000000  0.000000  0.000000  0.000000
                       0.000000  0.000000  0.000000  0.000000  0.000000  0.000000
                       0.000000  0.000000  0.000000  0.000000
                       1.000000  1.000000  1.000000  1.000000  1.000000  1.000000
                       1.000000  1.000000  1.000000  1.000000  1.000000  1.000000
                       1.000000  1.000000  1.000000  1.000000  1.000000  1.000000
                       1.000000  1.000000  1.000000  1.000000  1.000000  1.000000
                       1.000000  1.000000  1.000000  0.000000  0.000000  0.000000
                       0.000000  0.000000  0.000000  0.000000  0.000000  0.000000
                       0.000000  0.000000  0.000000  0.000000  0.000000  0.000000
                       0.000000  0.000000  0.000000  0.000000  0.000000  0.000000
                       0.000000  0.000000  0.000000  0.000000  0.000000  0.000000
                       0.000000  0.000000  0.000000  0.000000  0.000000  0.000000
                       0.000000  0.000000  0.000000  0.000000  0.000000  0.000000
                       0.000000  0.000000  0.000000  0.000000  0.000000  0.000000
                       0.000000  0.000000  0.000000  0.000000  0.000000  0.000000
                       0.000000  0.000000  0.000000  0.000000  0.000000  0.000000
                       0.000000  0.000000  0.000000  0.000000  0.000000  0.000000
                       0.000000  0.000000  0.000000  0.000000  0.000000  0.000000
                       0.000000  0.000000  0.000000  0.000000
                       1.000000  1.000000  1.000000  1.000000  1.000000  1.000000
                       1.000000  1.000000  1.000000  1.000000  1.000000  1.000000
                       1.000000  1.000000  1.000000  1.000000  1.000000  1.000000
                       1.000000  1.000000  1.000000  1.000000  1.000000  1.000000
                       1.000000  1.000000  1.000000  0.000000  0.000000  0.000000
                       0.000000  0.000000  0.000000  0.000000  0.000000  0.000000
                       0.000000  0.000000  0.000000  0.000000  0.000000  0.000000
                       0.000000  0.000000  0.000000  0.000000  0.000000  0.000000
                       0.000000  0.000000  0.000000  0.000000  0.000000  0.000000
                       0.000000  0.000000  0.000000  0.000000  0.000000  0.000000
                       0.000000  0.000000  0.000000  0.000000  0.000000  0.000000
                       0.000000  0.000000  0.000000  0.000000  0.000000  0.000000
                       0.000000  0.000000  0.000000  0.000000  0.000000  0.000000
                       0.000000  0.000000  0.000000  0.000000  0.000000  0.000000
                       0.000000  0.000000  0.000000  0.000000  0.000000  0.000000
                       0.000000  0.000000  0.000000  0.000000  0.000000  0.000000
                       0.000000  0.000000  0.000000  0.000000
              occ14    1.000000  1.000000  1.000000  1.000000  1.000000  1.000000
                       1.000000  1.000000  1.000000  1.000000  1.000000  1.000000
                       1.000000  1.000000  1.000000  1.000000  1.000000  1.000000
                       1.000000  1.000000  1.000000  1.000000  1.000000  1.000000
                       1.000000  1.000000  1.000000  1.000000  0.000000  0.000000
                       0.000000  0.000000  0.000000  0.000000  0.000000  0.000000
                       0.000000  0.000000  0.000000  0.000000  0.000000  0.000000
                       0.000000  0.000000  0.000000  0.000000  0.000000  0.000000
                       0.000000  0.000000  0.000000  0.000000  0.000000  0.000000
                       0.000000  0.000000  0.000000  0.000000  0.000000  0.000000
                       0.000000  0.000000  0.000000  0.000000  0.000000  0.000000
                       0.000000  0.000000  0.000000  0.000000  0.000000  0.000000
                       0.000000  0.000000  0.000000  0.000000  0.000000  0.000000
                       0.000000  0.000000  0.000000  0.000000  0.000000  0.000000
                       0.000000  0.000000  0.000000  0.000000  0.000000  0.000000
                       0.000000  0.000000  0.000000  0.000000  0.000000  0.000000
                       0.000000  0.000000  0.000000  0.000000
                       1.000000  1.000000  1.000000  1.000000  1.000000  1.000000
                       1.000000  1.000000  1.000000  1.000000  1.000000  1.000000
                       1.000000  1.000000  1.000000  1.000000  1.000000  1.000000
                       1.000000  1.000000  1.000000  1.000000  1.000000  1.000000
                       1.000000  1.000000  1.000000  1.000000  0.000000  0.000000
                       0.000000  0.000000  0.000000  0.000000  0.000000  0.000000
                       0.000000  0.000000  0.000000  0.000000  0.000000  0.000000
                       0.000000  0.000000  0.000000  0.000000  0.000000  0.000000
                       0.000000  0.000000  0.000000  0.000000  0.000000  0.000000
                       0.000000  0.000000  0.000000  0.000000  0.000000  0.000000
                       0.000000  0.000000  0.000000  0.000000  0.000000  0.000000
                       0.000000  0.000000  0.000000  0.000000  0.000000  0.000000
                       0.000000  0.000000  0.000000  0.000000  0.000000  0.000000
                       0.000000  0.000000  0.000000  0.000000  0.000000  0.000000
                       0.000000  0.000000  0.000000  0.000000  0.000000  0.000000
                       0.000000  0.000000  0.000000  0.000000  0.000000  0.000000
                       0.000000  0.000000  0.000000  0.000000
                       1.000000  1.000000  1.000000  1.000000  1.000000  1.000000
                       1.000000  1.000000  1.000000  1.000000  1.000000  1.000000
                       1.000000  1.000000  1.000000  1.000000  1.000000  1.000000
                       1.000000  1.000000  1.000000  1.000000  1.000000  1.000000
                       1.000000  1.000000  1.000000  1.000000  0.000000  0.000000
                       0.000000  0.000000  0.000000  0.000000  0.000000  0.000000
                       0.000000  0.000000  0.000000  0.000000  0.000000  0.000000
                       0.000000  0.000000  0.000000  0.000000  0.000000  0.000000
                       0.000000  0.000000  0.000000  0.000000  0.000000  0.000000
                       0.000000  0.000000  0.000000  0.000000  0.000000  0.000000
                       0.000000  0.000000  0.000000  0.000000  0.000000  0.000000
                       0.000000  0.000000  0.000000  0.000000  0.000000  0.000000
                       0.000000  0.000000  0.000000  0.000000  0.000000  0.000000
                       0.000000  0.000000  0.000000  0.000000  0.000000  0.000000
                       0.000000  0.000000  0.000000  0.000000  0.000000  0.000000
                       0.000000  0.000000  0.000000  0.000000  0.000000  0.000000
                       0.000000  0.000000  0.000000  0.000000
                       1.000000  1.000000  1.000000  1.000000  1.000000  1.000000
                       1.000000  1.000000  1.000000  1.000000  1.000000  1.000000
                       1.000000  1.000000  1.000000  1.000000  1.000000  1.000000
                       1.000000  1.000000  1.000000  1.000000  1.000000  1.000000
                       1.000000  1.000000  1.000000  1.000000  0.000000  0.000000
                       0.000000  0.000000  0.000000  0.000000  0.000000  0.000000
                       0.000000  0.000000  0.000000  0.000000  0.000000  0.000000
                       0.000000  0.000000  0.000000  0.000000  0.000000  0.000000
                       0.000000  0.000000  0.000000  0.000000  0.000000  0.000000
                       0.000000  0.000000  0.000000  0.000000  0.000000  0.000000
                       0.000000  0.000000  0.000000  0.000000  0.000000  0.000000
                       0.000000  0.000000  0.000000  0.000000  0.000000  0.000000
                       0.000000  0.000000  0.000000  0.000000  0.000000  0.000000
                       0.000000  0.000000  0.000000  0.000000  0.000000  0.000000
                       0.000000  0.000000  0.000000  0.000000  0.000000  0.000000
                       0.000000  0.000000  0.000000  0.000000  0.000000  0.000000
                       0.000000  0.000000  0.000000  0.000000
                       1.000000  1.000000  1.000000  1.000000  1.000000  1.000000
                       1.000000  1.000000  1.000000  1.000000  1.000000  1.000000
                       1.000000  1.000000  1.000000  1.000000  1.000000  1.000000
                       1.000000  1.000000  1.000000  1.000000  1.000000  1.000000
                       1.000000  1.000000  1.000000  0.000000  0.000000  0.000000
                       0.000000  0.000000  0.000000  0.000000  0.000000  0.000000
                       0.000000  0.000000  0.000000  0.000000  0.000000  0.000000
                       0.000000  0.000000  0.000000  0.000000  0.000000  0.000000
                       0.000000  0.000000  0.000000  0.000000  0.000000  0.000000
                       0.000000  0.000000  0.000000  0.000000  0.000000  0.000000
                       0.000000  0.000000  0.000000  0.000000  0.000000  0.000000
                       0.000000  0.000000  0.000000  0.000000  0.000000  0.000000
                       0.000000  0.000000  0.000000  0.000000  0.000000  0.000000
                       0.000000  0.000000  0.000000  0.000000  0.000000  0.000000
                       0.000000  0.000000  0.000000  0.000000  0.000000  0.000000
                       0.000000  0.000000  0.000000  0.000000  0.000000  0.000000
                       0.000000  0.000000  0.000000  0.000000
                       1.000000  1.000000  1.000000  1.000000  1.000000  1.000000
                       1.000000  1.000000  1.000000  1.000000  1.000000  1.000000
                       1.000000  1.000000  1.000000  1.000000  1.000000  1.000000
                       1.000000  1.000000  1.000000  1.000000  1.000000  1.000000
                       1.000000  1.000000  1.000000  0.000000  0.000000  0.000000
                       0.000000  0.000000  0.000000  0.000000  0.000000  0.000000
                       0.000000  0.000000  0.000000  0.000000  0.000000  0.000000
                       0.000000  0.000000  0.000000  0.000000  0.000000  0.000000
                       0.000000  0.000000  0.000000  0.000000  0.000000  0.000000
                       0.000000  0.000000  0.000000  0.000000  0.000000  0.000000
                       0.000000  0.000000  0.000000  0.000000  0.000000  0.000000
                       0.000000  0.000000  0.000000  0.000000  0.000000  0.000000
                       0.000000  0.000000  0.000000  0.000000  0.000000  0.000000
                       0.000000  0.000000  0.000000  0.000000  0.000000  0.000000
                       0.000000  0.000000  0.000000  0.000000  0.000000  0.000000
                       0.000000  0.000000  0.000000  0.000000  0.000000  0.000000
                       0.000000  0.000000  0.000000  0.000000
                       1.000000  1.000000  1.000000  1.000000  1.000000  1.000000
                       1.000000  1.000000  1.000000  1.000000  1.000000  1.000000
                       1.000000  1.000000  1.000000  1.000000  1.000000  1.000000
                       1.000000  1.000000  1.000000  1.000000  1.000000  1.000000
                       1.000000  1.000000  1.000000  0.000000  0.000000  0.000000
                       0.000000  0.000000  0.000000  0.000000  0.000000  0.000000
                       0.000000  0.000000  0.000000  0.000000  0.000000  0.000000
                       0.000000  0.000000  0.000000  0.000000  0.000000  0.000000
                       0.000000  0.000000  0.000000  0.000000  0.000000  0.000000
                       0.000000  0.000000  0.000000  0.000000  0.000000  0.000000
                       0.000000  0.000000  0.000000  0.000000  0.000000  0.000000
                       0.000000  0.000000  0.000000  0.000000  0.000000  0.000000
                       0.000000  0.000000  0.000000  0.000000  0.000000  0.000000
                       0.000000  0.000000  0.000000  0.000000  0.000000  0.000000
                       0.000000  0.000000  0.000000  0.000000  0.000000  0.000000
                       0.000000  0.000000  0.000000  0.000000  0.000000  0.000000
                       0.000000  0.000000  0.000000  0.000000
                       1.000000  1.000000  1.000000  1.000000  1.000000  1.000000
                       1.000000  1.000000  1.000000  1.000000  1.000000  1.000000
                       1.000000  1.000000  1.000000  1.000000  1.000000  1.000000
[...]
                      -1.9710283295E-01  1.9710283295E-01 -4.1706677931E-01
                      -1.9710283295E-01  4.1706677931E-01 -1.9710283295E-01
                      -4.1706677931E-01  1.9710283295E-01 -1.9710283295E-01
                      -1.9710283295E-01 -1.9710283295E-01  4.1706677931E-01
                      -1.9710283295E-01 -4.1706677931E-01  1.9710283295E-01
                      -4.1706677931E-01 -1.9710283295E-01  1.9710283295E-01
                       4.1706677931E-01  1.9710283295E-01  1.9710283295E-01
                       1.9710283295E-01  4.1706677931E-01  1.9710283295E-01
                       1.9710283295E-01  1.9710283295E-01  4.1706677931E-01
             xred12    0.0000000000E+00  0.0000000000E+00  0.0000000000E+00
                       2.3690075811E-01 -2.3690075811E-01 -2.3690075811E-01
                      -2.3690075811E-01  2.3690075811E-01 -2.3690075811E-01
                      -2.3690075811E-01 -2.3690075811E-01  2.3690075811E-01
                       2.3690075811E-01  2.3690075811E-01  2.3690075811E-01
                       1.1704327419E-01 -1.1704327419E-01 -1.1704327419E-01
                      -1.1704327419E-01  1.1704327419E-01 -1.1704327419E-01
                      -1.1704327419E-01 -1.1704327419E-01  1.1704327419E-01
                       1.1704327419E-01  1.1704327419E-01  1.1704327419E-01
                       1.9710283295E-01 -1.9710283295E-01 -4.1706677931E-01
                       1.9710283295E-01 -4.1706677931E-01 -1.9710283295E-01
                       4.1706677931E-01 -1.9710283295E-01 -1.9710283295E-01
                      -1.9710283295E-01  1.9710283295E-01 -4.1706677931E-01
                      -1.9710283295E-01  4.1706677931E-01 -1.9710283295E-01
                      -4.1706677931E-01  1.9710283295E-01 -1.9710283295E-01
                      -1.9710283295E-01 -1.9710283295E-01  4.1706677931E-01
                      -1.9710283295E-01 -4.1706677931E-01  1.9710283295E-01
                      -4.1706677931E-01 -1.9710283295E-01  1.9710283295E-01
                       4.1706677931E-01  1.9710283295E-01  1.9710283295E-01
                       1.9710283295E-01  4.1706677931E-01  1.9710283295E-01
                       1.9710283295E-01  1.9710283295E-01  4.1706677931E-01
             xred13    0.0000000000E+00  0.0000000000E+00  0.0000000000E+00
                       2.3690075811E-01 -2.3690075811E-01 -2.3690075811E-01
                      -2.3690075811E-01  2.3690075811E-01 -2.3690075811E-01
                      -2.3690075811E-01 -2.3690075811E-01  2.3690075811E-01
                       2.3690075811E-01  2.3690075811E-01  2.3690075811E-01
                       1.1704327419E-01 -1.1704327419E-01 -1.1704327419E-01
                      -1.1704327419E-01  1.1704327419E-01 -1.1704327419E-01
                      -1.1704327419E-01 -1.1704327419E-01  1.1704327419E-01
                       1.1704327419E-01  1.1704327419E-01  1.1704327419E-01
                       1.9710283295E-01 -1.9710283295E-01 -4.1706677931E-01
                       1.9710283295E-01 -4.1706677931E-01 -1.9710283295E-01
                       4.1706677931E-01 -1.9710283295E-01 -1.9710283295E-01
                      -1.9710283295E-01  1.9710283295E-01 -4.1706677931E-01
                      -1.9710283295E-01  4.1706677931E-01 -1.9710283295E-01
                      -4.1706677931E-01  1.9710283295E-01 -1.9710283295E-01
                      -1.9710283295E-01 -1.9710283295E-01  4.1706677931E-01
                      -1.9710283295E-01 -4.1706677931E-01  1.9710283295E-01
                      -4.1706677931E-01 -1.9710283295E-01  1.9710283295E-01
                       4.1706677931E-01  1.9710283295E-01  1.9710283295E-01
                       1.9710283295E-01  4.1706677931E-01  1.9710283295E-01
                       1.9710283295E-01  1.9710283295E-01  4.1706677931E-01
             xred14    0.0000000000E+00  0.0000000000E+00  0.0000000000E+00
                       2.3690075811E-01 -2.3690075811E-01 -2.3690075811E-01
                      -2.3690075811E-01  2.3690075811E-01 -2.3690075811E-01
                      -2.3690075811E-01 -2.3690075811E-01  2.3690075811E-01
                       2.3690075811E-01  2.3690075811E-01  2.3690075811E-01
                       1.1704327419E-01 -1.1704327419E-01 -1.1704327419E-01
                      -1.1704327419E-01  1.1704327419E-01 -1.1704327419E-01
                      -1.1704327419E-01 -1.1704327419E-01  1.1704327419E-01
                       1.1704327419E-01  1.1704327419E-01  1.1704327419E-01
                       1.9710283295E-01 -1.9710283295E-01 -4.1706677931E-01
                       1.9710283295E-01 -4.1706677931E-01 -1.9710283295E-01
                       4.1706677931E-01 -1.9710283295E-01 -1.9710283295E-01
                      -1.9710283295E-01  1.9710283295E-01 -4.1706677931E-01
                      -1.9710283295E-01  4.1706677931E-01 -1.9710283295E-01
                      -4.1706677931E-01  1.9710283295E-01 -1.9710283295E-01
                      -1.9710283295E-01 -1.9710283295E-01  4.1706677931E-01
                      -1.9710283295E-01 -4.1706677931E-01  1.9710283295E-01
                      -4.1706677931E-01 -1.9710283295E-01  1.9710283295E-01
                       4.1706677931E-01  1.9710283295E-01  1.9710283295E-01
                       1.9710283295E-01  4.1706677931E-01  1.9710283295E-01
                       1.9710283295E-01  1.9710283295E-01  4.1706677931E-01
             xred15    0.0000000000E+00  0.0000000000E+00  0.0000000000E+00
                       2.3690075811E-01 -2.3690075811E-01 -2.3690075811E-01
                      -2.3690075811E-01  2.3690075811E-01 -2.3690075811E-01
                      -2.3690075811E-01 -2.3690075811E-01  2.3690075811E-01
                       2.3690075811E-01  2.3690075811E-01  2.3690075811E-01
                       1.1704327419E-01 -1.1704327419E-01 -1.1704327419E-01
                      -1.1704327419E-01  1.1704327419E-01 -1.1704327419E-01
                      -1.1704327419E-01 -1.1704327419E-01  1.1704327419E-01
                       1.1704327419E-01  1.1704327419E-01  1.1704327419E-01
                       1.9710283295E-01 -1.9710283295E-01 -4.1706677931E-01
                       1.9710283295E-01 -4.1706677931E-01 -1.9710283295E-01
                       4.1706677931E-01 -1.9710283295E-01 -1.9710283295E-01
                      -1.9710283295E-01  1.9710283295E-01 -4.1706677931E-01
                      -1.9710283295E-01  4.1706677931E-01 -1.9710283295E-01
                      -4.1706677931E-01  1.9710283295E-01 -1.9710283295E-01
                      -1.9710283295E-01 -1.9710283295E-01  4.1706677931E-01
                      -1.9710283295E-01 -4.1706677931E-01  1.9710283295E-01
                      -4.1706677931E-01 -1.9710283295E-01  1.9710283295E-01
                       4.1706677931E-01  1.9710283295E-01  1.9710283295E-01
                       1.9710283295E-01  4.1706677931E-01  1.9710283295E-01
                       1.9710283295E-01  1.9710283295E-01  4.1706677931E-01
             xred21    0.0000000000E+00  0.0000000000E+00  0.0000000000E+00
                       1.1845037906E-01 -1.1845037906E-01 -1.1845037906E-01
                      -1.1845037906E-01  1.1845037906E-01 -1.1845037906E-01
                      -1.1845037906E-01 -1.1845037906E-01  1.1845037906E-01
                       1.1845037906E-01  1.1845037906E-01  1.1845037906E-01
                       5.8521637096E-02 -5.8521637096E-02 -5.8521637096E-02
                      -5.8521637096E-02  5.8521637096E-02 -5.8521637096E-02
                      -5.8521637096E-02 -5.8521637096E-02  5.8521637096E-02
                       5.8521637096E-02  5.8521637096E-02  5.8521637096E-02
                       9.8551416473E-02 -9.8551416473E-02 -2.0853338966E-01
                       9.8551416473E-02 -2.0853338966E-01 -9.8551416473E-02
                       2.0853338966E-01 -9.8551416473E-02 -9.8551416473E-02
                      -9.8551416473E-02  9.8551416473E-02 -2.0853338966E-01
                      -9.8551416473E-02  2.0853338966E-01 -9.8551416473E-02
                      -2.0853338966E-01  9.8551416473E-02 -9.8551416473E-02
                      -9.8551416473E-02 -9.8551416473E-02  2.0853338966E-01
                      -9.8551416473E-02 -2.0853338966E-01  9.8551416473E-02
                      -2.0853338966E-01 -9.8551416473E-02  9.8551416473E-02
                       2.0853338966E-01  9.8551416473E-02  9.8551416473E-02
                       9.8551416473E-02  2.0853338966E-01  9.8551416473E-02
                       9.8551416473E-02  9.8551416473E-02  2.0853338966E-01
             xred22    0.0000000000E+00  0.0000000000E+00  0.0000000000E+00
                       1.1845037906E-01 -1.1845037906E-01 -1.1845037906E-01
                      -1.1845037906E-01  1.1845037906E-01 -1.1845037906E-01
                      -1.1845037906E-01 -1.1845037906E-01  1.1845037906E-01
                       1.1845037906E-01  1.1845037906E-01  1.1845037906E-01
                       5.8521637096E-02 -5.8521637096E-02 -5.8521637096E-02
                      -5.8521637096E-02  5.8521637096E-02 -5.8521637096E-02
                      -5.8521637096E-02 -5.8521637096E-02  5.8521637096E-02
                       5.8521637096E-02  5.8521637096E-02  5.8521637096E-02
                       9.8551416473E-02 -9.8551416473E-02 -2.0853338966E-01
                       9.8551416473E-02 -2.0853338966E-01 -9.8551416473E-02
                       2.0853338966E-01 -9.8551416473E-02 -9.8551416473E-02
                      -9.8551416473E-02  9.8551416473E-02 -2.0853338966E-01
                      -9.8551416473E-02  2.0853338966E-01 -9.8551416473E-02
                      -2.0853338966E-01  9.8551416473E-02 -9.8551416473E-02
                      -9.8551416473E-02 -9.8551416473E-02  2.0853338966E-01
                      -9.8551416473E-02 -2.0853338966E-01  9.8551416473E-02
                      -2.0853338966E-01 -9.8551416473E-02  9.8551416473E-02
                       2.0853338966E-01  9.8551416473E-02  9.8551416473E-02
                       9.8551416473E-02  2.0853338966E-01  9.8551416473E-02
                       9.8551416473E-02  9.8551416473E-02  2.0853338966E-01
             xred23    0.0000000000E+00  0.0000000000E+00  0.0000000000E+00
                       1.1845037906E-01 -1.1845037906E-01 -1.1845037906E-01
                      -1.1845037906E-01  1.1845037906E-01 -1.1845037906E-01
                      -1.1845037906E-01 -1.1845037906E-01  1.1845037906E-01
                       1.1845037906E-01  1.1845037906E-01  1.1845037906E-01
                       5.8521637096E-02 -5.8521637096E-02 -5.8521637096E-02
                      -5.8521637096E-02  5.8521637096E-02 -5.8521637096E-02
                      -5.8521637096E-02 -5.8521637096E-02  5.8521637096E-02
                       5.8521637096E-02  5.8521637096E-02  5.8521637096E-02
                       9.8551416473E-02 -9.8551416473E-02 -2.0853338966E-01
                       9.8551416473E-02 -2.0853338966E-01 -9.8551416473E-02
                       2.0853338966E-01 -9.8551416473E-02 -9.8551416473E-02
                      -9.8551416473E-02  9.8551416473E-02 -2.0853338966E-01
                      -9.8551416473E-02  2.0853338966E-01 -9.8551416473E-02
                      -2.0853338966E-01  9.8551416473E-02 -9.8551416473E-02
                      -9.8551416473E-02 -9.8551416473E-02  2.0853338966E-01
                      -9.8551416473E-02 -2.0853338966E-01  9.8551416473E-02
                      -2.0853338966E-01 -9.8551416473E-02  9.8551416473E-02
                       2.0853338966E-01  9.8551416473E-02  9.8551416473E-02
                       9.8551416473E-02  2.0853338966E-01  9.8551416473E-02
                       9.8551416473E-02  9.8551416473E-02  2.0853338966E-01
             xred24    0.0000000000E+00  0.0000000000E+00  0.0000000000E+00
                       1.1845037906E-01 -1.1845037906E-01 -1.1845037906E-01
                      -1.1845037906E-01  1.1845037906E-01 -1.1845037906E-01
                      -1.1845037906E-01 -1.1845037906E-01  1.1845037906E-01
                       1.1845037906E-01  1.1845037906E-01  1.1845037906E-01
                       5.8521637096E-02 -5.8521637096E-02 -5.8521637096E-02
                      -5.8521637096E-02  5.8521637096E-02 -5.8521637096E-02
                      -5.8521637096E-02 -5.8521637096E-02  5.8521637096E-02
                       5.8521637096E-02  5.8521637096E-02  5.8521637096E-02
                       9.8551416473E-02 -9.8551416473E-02 -2.0853338966E-01
                       9.8551416473E-02 -2.0853338966E-01 -9.8551416473E-02
                       2.0853338966E-01 -9.8551416473E-02 -9.8551416473E-02
                      -9.8551416473E-02  9.8551416473E-02 -2.0853338966E-01
                      -9.8551416473E-02  2.0853338966E-01 -9.8551416473E-02
                      -2.0853338966E-01  9.8551416473E-02 -9.8551416473E-02
                      -9.8551416473E-02 -9.8551416473E-02  2.0853338966E-01
                      -9.8551416473E-02 -2.0853338966E-01  9.8551416473E-02
                      -2.0853338966E-01 -9.8551416473E-02  9.8551416473E-02
                       2.0853338966E-01  9.8551416473E-02  9.8551416473E-02
                       9.8551416473E-02  2.0853338966E-01  9.8551416473E-02
                       9.8551416473E-02  9.8551416473E-02  2.0853338966E-01
             xred25    0.0000000000E+00  0.0000000000E+00  0.0000000000E+00
                       1.1845037906E-01 -1.1845037906E-01 -1.1845037906E-01
                      -1.1845037906E-01  1.1845037906E-01 -1.1845037906E-01
                      -1.1845037906E-01 -1.1845037906E-01  1.1845037906E-01
                       1.1845037906E-01  1.1845037906E-01  1.1845037906E-01
                       5.8521637096E-02 -5.8521637096E-02 -5.8521637096E-02
                      -5.8521637096E-02  5.8521637096E-02 -5.8521637096E-02
                      -5.8521637096E-02 -5.8521637096E-02  5.8521637096E-02
                       5.8521637096E-02  5.8521637096E-02  5.8521637096E-02
                       9.8551416473E-02 -9.8551416473E-02 -2.0853338966E-01
                       9.8551416473E-02 -2.0853338966E-01 -9.8551416473E-02
                       2.0853338966E-01 -9.8551416473E-02 -9.8551416473E-02
                      -9.8551416473E-02  9.8551416473E-02 -2.0853338966E-01
                      -9.8551416473E-02  2.0853338966E-01 -9.8551416473E-02
                      -2.0853338966E-01  9.8551416473E-02 -9.8551416473E-02
                      -9.8551416473E-02 -9.8551416473E-02  2.0853338966E-01
                      -9.8551416473E-02 -2.0853338966E-01  9.8551416473E-02
                      -2.0853338966E-01 -9.8551416473E-02  9.8551416473E-02
                       2.0853338966E-01  9.8551416473E-02  9.8551416473E-02
                       9.8551416473E-02  2.0853338966E-01  9.8551416473E-02
                       9.8551416473E-02  9.8551416473E-02  2.0853338966E-01
            znucl        1.00000    8.00000   14.00000

================================================================================

 chkinp: Checking input parameters for consistency, jdtset=  11.

 chkinp: Checking input parameters for consistency, jdtset=  12.

 chkinp: Checking input parameters for consistency, jdtset=  13.

 chkinp: Checking input parameters for consistency, jdtset=  14.

 chkinp: Checking input parameters for consistency, jdtset=  15.

 chkinp: Checking input parameters for consistency, jdtset=  21.

 chkinp: Checking input parameters for consistency, jdtset=  22.

 chkinp: Checking input parameters for consistency, jdtset=  23.

 chkinp: Checking input parameters for consistency, jdtset=  24.

 chkinp: Checking input parameters for consistency, jdtset=  25.

================================================================================
== DATASET 11 ==================================================================
-   mpi_nproc: 1, omp_nthreads: 8 (-1 if OMP is not activated)


--- !DatasetInfo
iteration_state: {dtset: 11, }
dimensions: {natom: 21, nkpt: 4, mband: 100, nsppol: 2, nspinor: 1, nspden: 2, mpw: 1812, }
cutoff_energies: {ecut:   5.0, pawecutdg:  -1.0, }
electrons: {nelect:   5.50000000E+01, charge:   1.00000000E+00, occopt:   3.00000000E+00, tsmear:   1.00000000E-05, }
meta: {optdriver: 0, ionmov: 0, optcell: 0, iscf: 7, paral_kgb: 0, }
...

 Real(R)+Recip(G) space primitive vectors, cartesian coordinates (Bohr,Bohr^-1):
 R(1)= 15.0000000  0.0000000  0.0000000  G(1)=  0.0666667  0.0000000  0.0000000
 R(2)=  0.0000000 15.0000000  0.0000000  G(2)=  0.0000000  0.0666667  0.0000000
 R(3)=  0.0000000  0.0000000 15.0000000  G(3)=  0.0000000  0.0000000  0.0666667
 Unit cell volume ucvol=  3.3750000E+03 bohr^3
 Angles (23,13,12)=  9.00000000E+01  9.00000000E+01  9.00000000E+01 degrees

 getcut: wavevector=  0.0000  0.0000  0.0000  ngfft=  32  32  32
         ecut(hartree)=      5.000   => boxcut(ratio)=   2.11938

--- Pseudopotential description ------------------------------------------------
- pspini: atom type   1  psp file is /Users/ali/Desktop/JDFTX/build-withlibxc/pseudopotentials/H.psp8
- pspatm: opening atomic psp file    /Users/ali/Desktop/JDFTX/build-withlibxc/pseudopotentials/H.psp8
- H     ONCVPSP-3.3.0  r_core=   1.00957   0.90680
-  1.00000   1.00000    171101                znucl, zion, pspdat
    8   -1012    1    4       300   0.00000   pspcod,pspxc,lmax,lloc,mmax,r2well
    2.99000000000000    0.00000000000000    0.00000000000000   rchrg,fchrg,qchrg
     nproj     2     1
     extension_switch     1
  pspatm : epsatm=    0.35491505
         --- l  ekb(1:nproj) -->
             0   -1.665338   -0.519510
             1   -0.275071
 pspatm: atomic psp has been read  and splines computed

- pspini: atom type   2  psp file is /Users/ali/Desktop/JDFTX/build-withlibxc/pseudopotentials/O.psp8
- pspatm: opening atomic psp file    /Users/ali/Desktop/JDFTX/build-withlibxc/pseudopotentials/O.psp8
- O     ONCVPSP-3.3.0  r_core=   1.35509   1.45563   1.35509
-  8.00000   6.00000    171101                znucl, zion, pspdat
    8   -1012    2    4       600   0.00000   pspcod,pspxc,lmax,lloc,mmax,r2well
    5.99000000000000    4.00000000000000    0.00000000000000   rchrg,fchrg,qchrg
     nproj     2     2     1
     extension_switch     1
  pspatm : epsatm=    6.27558977
         --- l  ekb(1:nproj) -->
             0    6.026028    0.816167
             1   -4.798959   -1.172522
             2   -1.033686
 pspatm: atomic psp has been read  and splines computed

- pspini: atom type   3  psp file is /Users/ali/Desktop/JDFTX/build-withlibxc/pseudopotentials/Si.psp8
- pspatm: opening atomic psp file    /Users/ali/Desktop/JDFTX/build-withlibxc/pseudopotentials/Si.psp8
- Si    ONCVPSP-3.3.0  r_core=   1.60303   1.72197   1.91712
- 14.00000   4.00000    171102                znucl, zion, pspdat
    8   -1012    2    4       600   0.00000   pspcod,pspxc,lmax,lloc,mmax,r2well
    5.99000000000000    4.00000000000000    0.00000000000000   rchrg,fchrg,qchrg
     nproj     2     2     2
     extension_switch     1
  pspatm : epsatm=    6.67004110
         --- l  ekb(1:nproj) -->
             0    5.565958    0.856966
             1    2.726111    0.629828
             2   -2.124804   -0.444604
 pspatm: atomic psp has been read  and splines computed

   3.51184653E+03                                ecore*ucvol(ha*bohr**3)
--------------------------------------------------------------------------------

_setup2: Arith. and geom. avg. npw (full set) are    1798.375    1798.360

================================================================================

--- !BeginCycle
iteration_state: {dtset: 11, }
solver: {iscf: 7, nstep: 100, nline: 4, wfoptalg: 0, }
tolerances: {tolrff: 2.00E-02, }
...

     iter   Etot(hartree)     deltaE(h) residm    vres2   diffor   maxfor   magn
