
.Version 9.2.2 of ABINIT 
.(MPI version, prepared for a x86_64_darwin19.6.0_gnu10.2 computer) 

.Copyright (C) 1998-2020 ABINIT group . 
 ABINIT comes with ABSOLUTELY NO WARRANTY.
 It is free software, and you are welcome to redistribute it
 under certain conditions (GNU General Public License,
 see ~abinit/COPYING or http://www.gnu.org/copyleft/gpl.txt).

 ABINIT is a project of the Universite Catholique de Louvain,
 Corning Inc. and other collaborators, see ~abinit/doc/developers/contributors.txt .
 Please read https://docs.abinit.org/theory/acknowledgments for suggested
 acknowledgments of the ABINIT effort.
 For more information, see https://www.abinit.org .

.Starting date : Tue 16 Mar 2021.
- ( at 16h59 )
  
- input  file    -> sth1_relax.in
- output file    -> sth1_relax.abo
- root for input  files -> sth1_relaxi
- root for output files -> sth1_relaxo


 DATASET   11 : space group P-4 3 m (#215); Bravais cP (primitive cubic)
================================================================================
 Values of the parameters that define the memory need for DATASET 11.
     intxc =       0    ionmov =       0      iscf =       7    lmnmax =       6
     lnmax =       6     mgfft =      32  mpssoang =       3    mqgrid =    3001
     natom =      21  nloc_mem =       1    nspden =       2   nspinor =       1
    nsppol =       2      nsym =      24    n1xccc =    2501    ntypat =       3
    occopt =       3   xclevel =       1
-    mband =         100        mffmem =           1         mkmem =           1
       mpw =        1791          nfft =       32768          nkpt =           1
================================================================================
P This job should need less than                      23.356 Mbytes of memory.
  Rough estimation (10% accuracy) of disk space for files :
_ WF disk file :      5.468 Mbytes ; DEN or POT disk file :      0.502 Mbytes.
================================================================================


 DATASET   12 : space group P-4 3 m (#215); Bravais cP (primitive cubic)
================================================================================
 Values of the parameters that define the memory need for DATASET 12.
     intxc =       0    ionmov =       0      iscf =       7    lmnmax =       6
     lnmax =       6     mgfft =      50  mpssoang =       3    mqgrid =    3001
     natom =      21  nloc_mem =       1    nspden =       2   nspinor =       1
    nsppol =       2      nsym =      24    n1xccc =    2501    ntypat =       3
    occopt =       3   xclevel =       1
-    mband =         100        mffmem =           1         mkmem =           1
       mpw =        7521          nfft =      125000          nkpt =           1
================================================================================
P This job should need less than                      83.608 Mbytes of memory.
  Rough estimation (10% accuracy) of disk space for files :
_ WF disk file :     22.954 Mbytes ; DEN or POT disk file :      1.909 Mbytes.
================================================================================


 DATASET   13 : space group P-4 3 m (#215); Bravais cP (primitive cubic)
================================================================================
 Values of the parameters that define the memory need for DATASET 13.
     intxc =       0    ionmov =       0      iscf =       7    lmnmax =       6
     lnmax =       6     mgfft =      64  mpssoang =       3    mqgrid =    3095
     natom =      21  nloc_mem =       1    nspden =       2   nspinor =       1
    nsppol =       2      nsym =      24    n1xccc =    2501    ntypat =       3
    occopt =       3   xclevel =       1
-    mband =         100        mffmem =           1         mkmem =           1
       mpw =       15515          nfft =      262144          nkpt =           1
================================================================================
P This job should need less than                     171.268 Mbytes of memory.
  Rough estimation (10% accuracy) of disk space for files :
_ WF disk file :     47.350 Mbytes ; DEN or POT disk file :      4.002 Mbytes.
================================================================================


 DATASET   14 : space group P-4 3 m (#215); Bravais cP (primitive cubic)
================================================================================
 Values of the parameters that define the memory need for DATASET 14.
     intxc =       0    ionmov =       0      iscf =       7    lmnmax =       6
     lnmax =       6     mgfft =      75  mpssoang =       3    mqgrid =    3637
     natom =      21  nloc_mem =       1    nspden =       2   nspinor =       1
    nsppol =       2      nsym =      24    n1xccc =    2501    ntypat =       3
    occopt =       3   xclevel =       1
-    mband =         100        mffmem =           1         mkmem =           1
       mpw =       25269          nfft =      421875          nkpt =           1
================================================================================
P This job should need less than                     274.737 Mbytes of memory.
  Rough estimation (10% accuracy) of disk space for files :
_ WF disk file :     77.117 Mbytes ; DEN or POT disk file :      6.439 Mbytes.
================================================================================


 DATASET   15 : space group P-4 3 m (#215); Bravais cP (primitive cubic)
================================================================================
 Values of the parameters that define the memory need for DATASET 15.
     intxc =       0    ionmov =       0      iscf =       7    lmnmax =       6
     lnmax =       6     mgfft =      90  mpssoang =       3    mqgrid =    4108
     natom =      21  nloc_mem =       1    nspden =       2   nspinor =       1
    nsppol =       2      nsym =      24    n1xccc =    2501    ntypat =       3
    occopt =       3   xclevel =       1
-    mband =         100        mffmem =           1         mkmem =           1
       mpw =       36257          nfft =      729000          nkpt =           1
================================================================================
P This job should need less than                     446.375 Mbytes of memory.
  Rough estimation (10% accuracy) of disk space for files :
_ WF disk file :    110.650 Mbytes ; DEN or POT disk file :     11.126 Mbytes.
================================================================================


 DATASET   21 : space group P-4 3 m (#215); Bravais cP (primitive cubic)
================================================================================
 Values of the parameters that define the memory need for DATASET 21.
     intxc =       0    ionmov =       0      iscf =       7    lmnmax =       6
     lnmax =       6     mgfft =      64  mpssoang =       3    mqgrid =    3020
     natom =      21  nloc_mem =       1    nspden =       2   nspinor =       1
    nsppol =       2      nsym =      24    n1xccc =    2501    ntypat =       3
    occopt =       3   xclevel =       1
-    mband =         100        mffmem =           1         mkmem =           1
       mpw =       14363          nfft =      262144          nkpt =           1
================================================================================
P This job should need less than                     167.076 Mbytes of memory.
  Rough estimation (10% accuracy) of disk space for files :
_ WF disk file :     43.834 Mbytes ; DEN or POT disk file :      4.002 Mbytes.
================================================================================


 DATASET   22 : space group P-4 3 m (#215); Bravais cP (primitive cubic)
================================================================================
 Values of the parameters that define the memory need for DATASET 22.
     intxc =       0    ionmov =       0      iscf =       7    lmnmax =       6
     lnmax =       6     mgfft =     100  mpssoang =       3    mqgrid =    4870
     natom =      21  nloc_mem =       1    nspden =       2   nspinor =       1
    nsppol =       2      nsym =      24    n1xccc =    2501    ntypat =       3
    occopt =       3   xclevel =       1
-    mband =         100        mffmem =           1         mkmem =           1
       mpw =       60269          nfft =     1000000          nkpt =           1
================================================================================
P This job should need less than                     649.386 Mbytes of memory.
  Rough estimation (10% accuracy) of disk space for files :
_ WF disk file :    183.928 Mbytes ; DEN or POT disk file :     15.261 Mbytes.
================================================================================


 DATASET   23 : space group P-4 3 m (#215); Bravais cP (primitive cubic)
================================================================================
 Values of the parameters that define the memory need for DATASET 23.
     intxc =       0    ionmov =       0      iscf =       7    lmnmax =       6
     lnmax =       6     mgfft =     125  mpssoang =       3    mqgrid =    6189
     natom =      21  nloc_mem =       1    nspden =       2   nspinor =       1
    nsppol =       2      nsym =      24    n1xccc =    2501    ntypat =       3
    occopt =       3   xclevel =       1
-    mband =         100        mffmem =           1         mkmem =           1
       mpw =      124097          nfft =     1953125          nkpt =           1
================================================================================
P This job should need less than                    1287.305 Mbytes of memory.
  Rough estimation (10% accuracy) of disk space for files :
_ WF disk file :    378.716 Mbytes ; DEN or POT disk file :     29.804 Mbytes.
================================================================================


 DATASET   24 : space group P-4 3 m (#215); Bravais cP (primitive cubic)
================================================================================
 Values of the parameters that define the memory need for DATASET 24.
     intxc =       0    ionmov =       0      iscf =       7    lmnmax =       6
     lnmax =       6     mgfft =     150  mpssoang =       3    mqgrid =    7273
     natom =      21  nloc_mem =       1    nspden =       2   nspinor =       1
    nsppol =       2      nsym =      24    n1xccc =    2501    ntypat =       3
    occopt =       3   xclevel =       1
-    mband =         100        mffmem =           1         mkmem =           1
       mpw =      201485          nfft =     3375000          nkpt =           1
================================================================================
P This job should need less than                    2176.446 Mbytes of memory.
  Rough estimation (10% accuracy) of disk space for files :
_ WF disk file :    614.885 Mbytes ; DEN or POT disk file :     51.500 Mbytes.
================================================================================


 DATASET   25 : space group P-4 3 m (#215); Bravais cP (primitive cubic)
================================================================================
 Values of the parameters that define the memory need for DATASET 25.
     intxc =       0    ionmov =       0      iscf =       7    lmnmax =       6
     lnmax =       6     mgfft =     180  mpssoang =       3    mqgrid =    8215
     natom =      21  nloc_mem =       1    nspden =       2   nspinor =       1
    nsppol =       2      nsym =      24    n1xccc =    2501    ntypat =       3
    occopt =       3   xclevel =       1
-    mband =         100        mffmem =           1         mkmem =           1
       mpw =      290243          nfft =     5832000          nkpt =           1
================================================================================
P This job should need less than                    3548.148 Mbytes of memory.
  Rough estimation (10% accuracy) of disk space for files :
_ WF disk file :    885.753 Mbytes ; DEN or POT disk file :     88.991 Mbytes.
================================================================================

--------------------------------------------------------------------------------
------------- Echo of variables that govern the present computation ------------
--------------------------------------------------------------------------------
-
- outvars: echo of selected default values                                      
-   iomode0 =  0 , fftalg0 =312 , wfoptalg0 =  0
-
- outvars: echo of global parameters not present in the input file              
-  max_nthreads =    8
-
 -outvars: echo values of preprocessed input variables --------
            acell11    1.5000000000E+01  1.5000000000E+01  1.5000000000E+01 Bohr
            acell12    1.5000000000E+01  1.5000000000E+01  1.5000000000E+01 Bohr
            acell13    1.5000000000E+01  1.5000000000E+01  1.5000000000E+01 Bohr
            acell14    1.5000000000E+01  1.5000000000E+01  1.5000000000E+01 Bohr
            acell15    1.5000000000E+01  1.5000000000E+01  1.5000000000E+01 Bohr
            acell21    3.0000000000E+01  3.0000000000E+01  3.0000000000E+01 Bohr
            acell22    3.0000000000E+01  3.0000000000E+01  3.0000000000E+01 Bohr
            acell23    3.0000000000E+01  3.0000000000E+01  3.0000000000E+01 Bohr
            acell24    3.0000000000E+01  3.0000000000E+01  3.0000000000E+01 Bohr
            acell25    3.0000000000E+01  3.0000000000E+01  3.0000000000E+01 Bohr
              amu      1.00794000E+00  1.59994000E+01  2.80855000E+01
           charge      1.00000000E+00
           diemac      1.20000000E+01
             ecut11    5.00000000E+00 Hartree
             ecut12    1.30000000E+01 Hartree
             ecut13    2.10000000E+01 Hartree
             ecut14    2.90000000E+01 Hartree
             ecut15    3.70000000E+01 Hartree
             ecut21    5.00000000E+00 Hartree
             ecut22    1.30000000E+01 Hartree
             ecut23    2.10000000E+01 Hartree
             ecut24    2.90000000E+01 Hartree
             ecut25    3.70000000E+01 Hartree
-          fftalg         312
           istwfk        1
              ixc       -1012
           jdtset       11   12   13   14   15   21   22   23   24   25
           kptopt           0
P           mkmem           1
            natom          21
            nband         100
           ndtset          10
            ngfft11        32      32      32
            ngfft12        50      50      50
            ngfft13        64      64      64
            ngfft14        75      75      75
            ngfft15        90      90      90
            ngfft21        64      64      64
            ngfft22       100     100     100
            ngfft23       125     125     125
            ngfft24       150     150     150
            ngfft25       180     180     180
             nkpt           1
           nspden           2
           nsppol           2
            nstep         100
             nsym          24
           ntypat           3
              occ      1.000000  1.000000  1.000000  1.000000  1.000000  1.000000
                       1.000000  1.000000  1.000000  1.000000  1.000000  1.000000
                       1.000000  1.000000  1.000000  1.000000  1.000000  1.000000
                       1.000000  1.000000  1.000000  1.000000  1.000000  1.000000
                       1.000000  1.000000  1.000000  1.000000  0.000000  0.000000
                       0.000000  0.000000  0.000000  0.000000  0.000000  0.000000
                       0.000000  0.000000  0.000000  0.000000  0.000000  0.000000
                       0.000000  0.000000  0.000000  0.000000  0.000000  0.000000
                       0.000000  0.000000  0.000000  0.000000  0.000000  0.000000
                       0.000000  0.000000  0.000000  0.000000  0.000000  0.000000
                       0.000000  0.000000  0.000000  0.000000  0.000000  0.000000
                       0.000000  0.000000  0.000000  0.000000  0.000000  0.000000
                       0.000000  0.000000  0.000000  0.000000  0.000000  0.000000
                       0.000000  0.000000  0.000000  0.000000  0.000000  0.000000
                       0.000000  0.000000  0.000000  0.000000  0.000000  0.000000
                       0.000000  0.000000  0.000000  0.000000  0.000000  0.000000
                       0.000000  0.000000  0.000000  0.000000
                       1.000000  1.000000  1.000000  1.000000  1.000000  1.000000
                       1.000000  1.000000  1.000000  1.000000  1.000000  1.000000
                       1.000000  1.000000  1.000000  1.000000  1.000000  1.000000
                       1.000000  1.000000  1.000000  1.000000  1.000000  1.000000
                       1.000000  1.000000  1.000000  0.000000  0.000000  0.000000
                       0.000000  0.000000  0.000000  0.000000  0.000000  0.000000
                       0.000000  0.000000  0.000000  0.000000  0.000000  0.000000
                       0.000000  0.000000  0.000000  0.000000  0.000000  0.000000
                       0.000000  0.000000  0.000000  0.000000  0.000000  0.000000
                       0.000000  0.000000  0.000000  0.000000  0.000000  0.000000
                       0.000000  0.000000  0.000000  0.000000  0.000000  0.000000
                       0.000000  0.000000  0.000000  0.000000  0.000000  0.000000
                       0.000000  0.000000  0.000000  0.000000  0.000000  0.000000
                       0.000000  0.000000  0.000000  0.000000  0.000000  0.000000
                       0.000000  0.000000  0.000000  0.000000  0.000000  0.000000
                       0.000000  0.000000  0.000000  0.000000  0.000000  0.000000
                       0.000000  0.000000  0.000000  0.000000
           occopt           3
        optforces           1
          spgroup         215
           spinat      0.0000000000E+00  0.0000000000E+00  1.0000000000E-01
                       0.0000000000E+00  0.0000000000E+00  1.0000000000E-01
                       0.0000000000E+00  0.0000000000E+00  1.0000000000E-01
                       0.0000000000E+00  0.0000000000E+00  1.0000000000E-01
                       0.0000000000E+00  0.0000000000E+00  1.0000000000E-01
                       0.0000000000E+00  0.0000000000E+00  1.0000000000E-01
                       0.0000000000E+00  0.0000000000E+00  1.0000000000E-01
                       0.0000000000E+00  0.0000000000E+00  1.0000000000E-01
                       0.0000000000E+00  0.0000000000E+00  1.0000000000E-01
                       0.0000000000E+00  0.0000000000E+00  1.0000000000E-01
                       0.0000000000E+00  0.0000000000E+00  1.0000000000E-01
                       0.0000000000E+00  0.0000000000E+00  1.0000000000E-01
                       0.0000000000E+00  0.0000000000E+00  1.0000000000E-01
                       0.0000000000E+00  0.0000000000E+00  1.0000000000E-01
                       0.0000000000E+00  0.0000000000E+00  1.0000000000E-01
                       0.0000000000E+00  0.0000000000E+00  1.0000000000E-01
                       0.0000000000E+00  0.0000000000E+00  1.0000000000E-01
                       0.0000000000E+00  0.0000000000E+00  1.0000000000E-01
                       0.0000000000E+00  0.0000000000E+00  1.0000000000E-01
                       0.0000000000E+00  0.0000000000E+00  1.0000000000E-01
                       0.0000000000E+00  0.0000000000E+00  1.0000000000E-01
           symrel      1  0  0   0  1  0   0  0  1      -1  0  0   0  1  0   0  0 -1
                      -1  0  0   0 -1  0   0  0  1       1  0  0   0 -1  0   0  0 -1
                       0  1  0   1  0  0   0  0  1       0 -1  0   1  0  0   0  0 -1
                       0 -1  0  -1  0  0   0  0  1       0  1  0  -1  0  0   0  0 -1
                       0  0  1   1  0  0   0  1  0       0  0 -1   1  0  0   0 -1  0
                       0  0 -1  -1  0  0   0  1  0       0  0  1  -1  0  0   0 -1  0
                       1  0  0   0  0  1   0  1  0      -1  0  0   0  0  1   0 -1  0
                      -1  0  0   0  0 -1   0  1  0       1  0  0   0  0 -1   0 -1  0
                       0  1  0   0  0  1   1  0  0       0 -1  0   0  0  1  -1  0  0
                       0 -1  0   0  0 -1   1  0  0       0  1  0   0  0 -1  -1  0  0
                       0  0  1   0  1  0   1  0  0       0  0 -1   0  1  0  -1  0  0
                       0  0 -1   0 -1  0   1  0  0       0  0  1   0 -1  0  -1  0  0
           tolrff      2.00000000E-02
           tsmear      1.00000000E-05 Hartree
            typat      3  3  3  3  3  2  2  2  2  1  1  1  1  1  1  1  1  1  1  1
                       1
           xangst      0.0000000000E+00  0.0000000000E+00  0.0000000000E+00
                       1.8804372284E+00 -1.8804372284E+00 -1.8804372284E+00
                      -1.8804372284E+00  1.8804372284E+00 -1.8804372284E+00
                      -1.8804372284E+00 -1.8804372284E+00  1.8804372284E+00
                       1.8804372284E+00  1.8804372284E+00  1.8804372284E+00
                       9.2904949682E-01 -9.2904949682E-01 -9.2904949682E-01
                      -9.2904949682E-01  9.2904949682E-01 -9.2904949682E-01
                      -9.2904949682E-01 -9.2904949682E-01  9.2904949682E-01
                       9.2904949682E-01  9.2904949682E-01  9.2904949682E-01
                       1.5645349042E+00 -1.5645349042E+00 -3.3105335111E+00
                       1.5645349042E+00 -3.3105335111E+00 -1.5645349042E+00
                       3.3105335111E+00 -1.5645349042E+00 -1.5645349042E+00
                      -1.5645349042E+00  1.5645349042E+00 -3.3105335111E+00
                      -1.5645349042E+00  3.3105335111E+00 -1.5645349042E+00
                      -3.3105335111E+00  1.5645349042E+00 -1.5645349042E+00
                      -1.5645349042E+00 -1.5645349042E+00  3.3105335111E+00
                      -1.5645349042E+00 -3.3105335111E+00  1.5645349042E+00
                      -3.3105335111E+00 -1.5645349042E+00  1.5645349042E+00
                       3.3105335111E+00  1.5645349042E+00  1.5645349042E+00
                       1.5645349042E+00  3.3105335111E+00  1.5645349042E+00
                       1.5645349042E+00  1.5645349042E+00  3.3105335111E+00
            xcart      0.0000000000E+00  0.0000000000E+00  0.0000000000E+00
                       3.5535113717E+00 -3.5535113717E+00 -3.5535113717E+00
                      -3.5535113717E+00  3.5535113717E+00 -3.5535113717E+00
                      -3.5535113717E+00 -3.5535113717E+00  3.5535113717E+00
                       3.5535113717E+00  3.5535113717E+00  3.5535113717E+00
                       1.7556491129E+00 -1.7556491129E+00 -1.7556491129E+00
                      -1.7556491129E+00  1.7556491129E+00 -1.7556491129E+00
                      -1.7556491129E+00 -1.7556491129E+00  1.7556491129E+00
                       1.7556491129E+00  1.7556491129E+00  1.7556491129E+00
                       2.9565424942E+00 -2.9565424942E+00 -6.2560016897E+00
                       2.9565424942E+00 -6.2560016897E+00 -2.9565424942E+00
                       6.2560016897E+00 -2.9565424942E+00 -2.9565424942E+00
                      -2.9565424942E+00  2.9565424942E+00 -6.2560016897E+00
                      -2.9565424942E+00  6.2560016897E+00 -2.9565424942E+00
                      -6.2560016897E+00  2.9565424942E+00 -2.9565424942E+00
                      -2.9565424942E+00 -2.9565424942E+00  6.2560016897E+00
                      -2.9565424942E+00 -6.2560016897E+00  2.9565424942E+00
                      -6.2560016897E+00 -2.9565424942E+00  2.9565424942E+00
                       6.2560016897E+00  2.9565424942E+00  2.9565424942E+00
                       2.9565424942E+00  6.2560016897E+00  2.9565424942E+00
                       2.9565424942E+00  2.9565424942E+00  6.2560016897E+00
             xred11    0.0000000000E+00  0.0000000000E+00  0.0000000000E+00
                       2.3690075811E-01 -2.3690075811E-01 -2.3690075811E-01
                      -2.3690075811E-01  2.3690075811E-01 -2.3690075811E-01
                      -2.3690075811E-01 -2.3690075811E-01  2.3690075811E-01
                       2.3690075811E-01  2.3690075811E-01  2.3690075811E-01
                       1.1704327419E-01 -1.1704327419E-01 -1.1704327419E-01
                      -1.1704327419E-01  1.1704327419E-01 -1.1704327419E-01
                      -1.1704327419E-01 -1.1704327419E-01  1.1704327419E-01
                       1.1704327419E-01  1.1704327419E-01  1.1704327419E-01
                       1.9710283295E-01 -1.9710283295E-01 -4.1706677931E-01
                       1.9710283295E-01 -4.1706677931E-01 -1.9710283295E-01
                       4.1706677931E-01 -1.9710283295E-01 -1.9710283295E-01
                      -1.9710283295E-01  1.9710283295E-01 -4.1706677931E-01
                      -1.9710283295E-01  4.1706677931E-01 -1.9710283295E-01
                      -4.1706677931E-01  1.9710283295E-01 -1.9710283295E-01
                      -1.9710283295E-01 -1.9710283295E-01  4.1706677931E-01
                      -1.9710283295E-01 -4.1706677931E-01  1.9710283295E-01
                      -4.1706677931E-01 -1.9710283295E-01  1.9710283295E-01
                       4.1706677931E-01  1.9710283295E-01  1.9710283295E-01
                       1.9710283295E-01  4.1706677931E-01  1.9710283295E-01
                       1.9710283295E-01  1.9710283295E-01  4.1706677931E-01
             xred12    0.0000000000E+00  0.0000000000E+00  0.0000000000E+00
                       2.3690075811E-01 -2.3690075811E-01 -2.3690075811E-01
                      -2.3690075811E-01  2.3690075811E-01 -2.3690075811E-01
                      -2.3690075811E-01 -2.3690075811E-01  2.3690075811E-01
                       2.3690075811E-01  2.3690075811E-01  2.3690075811E-01
                       1.1704327419E-01 -1.1704327419E-01 -1.1704327419E-01
                      -1.1704327419E-01  1.1704327419E-01 -1.1704327419E-01
                      -1.1704327419E-01 -1.1704327419E-01  1.1704327419E-01
                       1.1704327419E-01  1.1704327419E-01  1.1704327419E-01
                       1.9710283295E-01 -1.9710283295E-01 -4.1706677931E-01
                       1.9710283295E-01 -4.1706677931E-01 -1.9710283295E-01
                       4.1706677931E-01 -1.9710283295E-01 -1.9710283295E-01
                      -1.9710283295E-01  1.9710283295E-01 -4.1706677931E-01
                      -1.9710283295E-01  4.1706677931E-01 -1.9710283295E-01
                      -4.1706677931E-01  1.9710283295E-01 -1.9710283295E-01
                      -1.9710283295E-01 -1.9710283295E-01  4.1706677931E-01
                      -1.9710283295E-01 -4.1706677931E-01  1.9710283295E-01
                      -4.1706677931E-01 -1.9710283295E-01  1.9710283295E-01
                       4.1706677931E-01  1.9710283295E-01  1.9710283295E-01
                       1.9710283295E-01  4.1706677931E-01  1.9710283295E-01
                       1.9710283295E-01  1.9710283295E-01  4.1706677931E-01
             xred13    0.0000000000E+00  0.0000000000E+00  0.0000000000E+00
                       2.3690075811E-01 -2.3690075811E-01 -2.3690075811E-01
                      -2.3690075811E-01  2.3690075811E-01 -2.3690075811E-01
                      -2.3690075811E-01 -2.3690075811E-01  2.3690075811E-01
                       2.3690075811E-01  2.3690075811E-01  2.3690075811E-01
                       1.1704327419E-01 -1.1704327419E-01 -1.1704327419E-01
                      -1.1704327419E-01  1.1704327419E-01 -1.1704327419E-01
                      -1.1704327419E-01 -1.1704327419E-01  1.1704327419E-01
                       1.1704327419E-01  1.1704327419E-01  1.1704327419E-01
                       1.9710283295E-01 -1.9710283295E-01 -4.1706677931E-01
                       1.9710283295E-01 -4.1706677931E-01 -1.9710283295E-01
                       4.1706677931E-01 -1.9710283295E-01 -1.9710283295E-01
                      -1.9710283295E-01  1.9710283295E-01 -4.1706677931E-01
                      -1.9710283295E-01  4.1706677931E-01 -1.9710283295E-01
                      -4.1706677931E-01  1.9710283295E-01 -1.9710283295E-01
                      -1.9710283295E-01 -1.9710283295E-01  4.1706677931E-01
                      -1.9710283295E-01 -4.1706677931E-01  1.9710283295E-01
                      -4.1706677931E-01 -1.9710283295E-01  1.9710283295E-01
                       4.1706677931E-01  1.9710283295E-01  1.9710283295E-01
                       1.9710283295E-01  4.1706677931E-01  1.9710283295E-01
                       1.9710283295E-01  1.9710283295E-01  4.1706677931E-01
             xred14    0.0000000000E+00  0.0000000000E+00  0.0000000000E+00
                       2.3690075811E-01 -2.3690075811E-01 -2.3690075811E-01
                      -2.3690075811E-01  2.3690075811E-01 -2.3690075811E-01
                      -2.3690075811E-01 -2.3690075811E-01  2.3690075811E-01
                       2.3690075811E-01  2.3690075811E-01  2.3690075811E-01
                       1.1704327419E-01 -1.1704327419E-01 -1.1704327419E-01
                      -1.1704327419E-01  1.1704327419E-01 -1.1704327419E-01
                      -1.1704327419E-01 -1.1704327419E-01  1.1704327419E-01
                       1.1704327419E-01  1.1704327419E-01  1.1704327419E-01
                       1.9710283295E-01 -1.9710283295E-01 -4.1706677931E-01
                       1.9710283295E-01 -4.1706677931E-01 -1.9710283295E-01
                       4.1706677931E-01 -1.9710283295E-01 -1.9710283295E-01
                      -1.9710283295E-01  1.9710283295E-01 -4.1706677931E-01
                      -1.9710283295E-01  4.1706677931E-01 -1.9710283295E-01
                      -4.1706677931E-01  1.9710283295E-01 -1.9710283295E-01
                      -1.9710283295E-01 -1.9710283295E-01  4.1706677931E-01
                      -1.9710283295E-01 -4.1706677931E-01  1.9710283295E-01
                      -4.1706677931E-01 -1.9710283295E-01  1.9710283295E-01
                       4.1706677931E-01  1.9710283295E-01  1.9710283295E-01
                       1.9710283295E-01  4.1706677931E-01  1.9710283295E-01
                       1.9710283295E-01  1.9710283295E-01  4.1706677931E-01
             xred15    0.0000000000E+00  0.0000000000E+00  0.0000000000E+00
                       2.3690075811E-01 -2.3690075811E-01 -2.3690075811E-01
                      -2.3690075811E-01  2.3690075811E-01 -2.3690075811E-01
                      -2.3690075811E-01 -2.3690075811E-01  2.3690075811E-01
                       2.3690075811E-01  2.3690075811E-01  2.3690075811E-01
                       1.1704327419E-01 -1.1704327419E-01 -1.1704327419E-01
                      -1.1704327419E-01  1.1704327419E-01 -1.1704327419E-01
                      -1.1704327419E-01 -1.1704327419E-01  1.1704327419E-01
                       1.1704327419E-01  1.1704327419E-01  1.1704327419E-01
                       1.9710283295E-01 -1.9710283295E-01 -4.1706677931E-01
                       1.9710283295E-01 -4.1706677931E-01 -1.9710283295E-01
                       4.1706677931E-01 -1.9710283295E-01 -1.9710283295E-01
                      -1.9710283295E-01  1.9710283295E-01 -4.1706677931E-01
                      -1.9710283295E-01  4.1706677931E-01 -1.9710283295E-01
                      -4.1706677931E-01  1.9710283295E-01 -1.9710283295E-01
                      -1.9710283295E-01 -1.9710283295E-01  4.1706677931E-01
                      -1.9710283295E-01 -4.1706677931E-01  1.9710283295E-01
                      -4.1706677931E-01 -1.9710283295E-01  1.9710283295E-01
                       4.1706677931E-01  1.9710283295E-01  1.9710283295E-01
                       1.9710283295E-01  4.1706677931E-01  1.9710283295E-01
                       1.9710283295E-01  1.9710283295E-01  4.1706677931E-01
             xred21    0.0000000000E+00  0.0000000000E+00  0.0000000000E+00
                       1.1845037906E-01 -1.1845037906E-01 -1.1845037906E-01
                      -1.1845037906E-01  1.1845037906E-01 -1.1845037906E-01
                      -1.1845037906E-01 -1.1845037906E-01  1.1845037906E-01
                       1.1845037906E-01  1.1845037906E-01  1.1845037906E-01
                       5.8521637096E-02 -5.8521637096E-02 -5.8521637096E-02
                      -5.8521637096E-02  5.8521637096E-02 -5.8521637096E-02
                      -5.8521637096E-02 -5.8521637096E-02  5.8521637096E-02
                       5.8521637096E-02  5.8521637096E-02  5.8521637096E-02
                       9.8551416473E-02 -9.8551416473E-02 -2.0853338966E-01
                       9.8551416473E-02 -2.0853338966E-01 -9.8551416473E-02
                       2.0853338966E-01 -9.8551416473E-02 -9.8551416473E-02
                      -9.8551416473E-02  9.8551416473E-02 -2.0853338966E-01
                      -9.8551416473E-02  2.0853338966E-01 -9.8551416473E-02
                      -2.0853338966E-01  9.8551416473E-02 -9.8551416473E-02
                      -9.8551416473E-02 -9.8551416473E-02  2.0853338966E-01
                      -9.8551416473E-02 -2.0853338966E-01  9.8551416473E-02
                      -2.0853338966E-01 -9.8551416473E-02  9.8551416473E-02
                       2.0853338966E-01  9.8551416473E-02  9.8551416473E-02
                       9.8551416473E-02  2.0853338966E-01  9.8551416473E-02
                       9.8551416473E-02  9.8551416473E-02  2.0853338966E-01
             xred22    0.0000000000E+00  0.0000000000E+00  0.0000000000E+00
                       1.1845037906E-01 -1.1845037906E-01 -1.1845037906E-01
                      -1.1845037906E-01  1.1845037906E-01 -1.1845037906E-01
                      -1.1845037906E-01 -1.1845037906E-01  1.1845037906E-01
                       1.1845037906E-01  1.1845037906E-01  1.1845037906E-01
                       5.8521637096E-02 -5.8521637096E-02 -5.8521637096E-02
                      -5.8521637096E-02  5.8521637096E-02 -5.8521637096E-02
                      -5.8521637096E-02 -5.8521637096E-02  5.8521637096E-02
                       5.8521637096E-02  5.8521637096E-02  5.8521637096E-02
                       9.8551416473E-02 -9.8551416473E-02 -2.0853338966E-01
                       9.8551416473E-02 -2.0853338966E-01 -9.8551416473E-02
                       2.0853338966E-01 -9.8551416473E-02 -9.8551416473E-02
                      -9.8551416473E-02  9.8551416473E-02 -2.0853338966E-01
                      -9.8551416473E-02  2.0853338966E-01 -9.8551416473E-02
                      -2.0853338966E-01  9.8551416473E-02 -9.8551416473E-02
                      -9.8551416473E-02 -9.8551416473E-02  2.0853338966E-01
                      -9.8551416473E-02 -2.0853338966E-01  9.8551416473E-02
                      -2.0853338966E-01 -9.8551416473E-02  9.8551416473E-02
                       2.0853338966E-01  9.8551416473E-02  9.8551416473E-02
                       9.8551416473E-02  2.0853338966E-01  9.8551416473E-02
                       9.8551416473E-02  9.8551416473E-02  2.0853338966E-01
             xred23    0.0000000000E+00  0.0000000000E+00  0.0000000000E+00
                       1.1845037906E-01 -1.1845037906E-01 -1.1845037906E-01
                      -1.1845037906E-01  1.1845037906E-01 -1.1845037906E-01
                      -1.1845037906E-01 -1.1845037906E-01  1.1845037906E-01
                       1.1845037906E-01  1.1845037906E-01  1.1845037906E-01
                       5.8521637096E-02 -5.8521637096E-02 -5.8521637096E-02
                      -5.8521637096E-02  5.8521637096E-02 -5.8521637096E-02
                      -5.8521637096E-02 -5.8521637096E-02  5.8521637096E-02
                       5.8521637096E-02  5.8521637096E-02  5.8521637096E-02
                       9.8551416473E-02 -9.8551416473E-02 -2.0853338966E-01
                       9.8551416473E-02 -2.0853338966E-01 -9.8551416473E-02
                       2.0853338966E-01 -9.8551416473E-02 -9.8551416473E-02
                      -9.8551416473E-02  9.8551416473E-02 -2.0853338966E-01
                      -9.8551416473E-02  2.0853338966E-01 -9.8551416473E-02
                      -2.0853338966E-01  9.8551416473E-02 -9.8551416473E-02
                      -9.8551416473E-02 -9.8551416473E-02  2.0853338966E-01
                      -9.8551416473E-02 -2.0853338966E-01  9.8551416473E-02
                      -2.0853338966E-01 -9.8551416473E-02  9.8551416473E-02
                       2.0853338966E-01  9.8551416473E-02  9.8551416473E-02
                       9.8551416473E-02  2.0853338966E-01  9.8551416473E-02
                       9.8551416473E-02  9.8551416473E-02  2.0853338966E-01
             xred24    0.0000000000E+00  0.0000000000E+00  0.0000000000E+00
                       1.1845037906E-01 -1.1845037906E-01 -1.1845037906E-01
                      -1.1845037906E-01  1.1845037906E-01 -1.1845037906E-01
                      -1.1845037906E-01 -1.1845037906E-01  1.1845037906E-01
                       1.1845037906E-01  1.1845037906E-01  1.1845037906E-01
                       5.8521637096E-02 -5.8521637096E-02 -5.8521637096E-02
                      -5.8521637096E-02  5.8521637096E-02 -5.8521637096E-02
                      -5.8521637096E-02 -5.8521637096E-02  5.8521637096E-02
                       5.8521637096E-02  5.8521637096E-02  5.8521637096E-02
                       9.8551416473E-02 -9.8551416473E-02 -2.0853338966E-01
                       9.8551416473E-02 -2.0853338966E-01 -9.8551416473E-02
                       2.0853338966E-01 -9.8551416473E-02 -9.8551416473E-02
                      -9.8551416473E-02  9.8551416473E-02 -2.0853338966E-01
                      -9.8551416473E-02  2.0853338966E-01 -9.8551416473E-02
                      -2.0853338966E-01  9.8551416473E-02 -9.8551416473E-02
                      -9.8551416473E-02 -9.8551416473E-02  2.0853338966E-01
                      -9.8551416473E-02 -2.0853338966E-01  9.8551416473E-02
                      -2.0853338966E-01 -9.8551416473E-02  9.8551416473E-02
                       2.0853338966E-01  9.8551416473E-02  9.8551416473E-02
                       9.8551416473E-02  2.0853338966E-01  9.8551416473E-02
                       9.8551416473E-02  9.8551416473E-02  2.0853338966E-01
             xred25    0.0000000000E+00  0.0000000000E+00  0.0000000000E+00
                       1.1845037906E-01 -1.1845037906E-01 -1.1845037906E-01
                      -1.1845037906E-01  1.1845037906E-01 -1.1845037906E-01
                      -1.1845037906E-01 -1.1845037906E-01  1.1845037906E-01
                       1.1845037906E-01  1.1845037906E-01  1.1845037906E-01
                       5.8521637096E-02 -5.8521637096E-02 -5.8521637096E-02
                      -5.8521637096E-02  5.8521637096E-02 -5.8521637096E-02
                      -5.8521637096E-02 -5.8521637096E-02  5.8521637096E-02
                       5.8521637096E-02  5.8521637096E-02  5.8521637096E-02
                       9.8551416473E-02 -9.8551416473E-02 -2.0853338966E-01
                       9.8551416473E-02 -2.0853338966E-01 -9.8551416473E-02
                       2.0853338966E-01 -9.8551416473E-02 -9.8551416473E-02
                      -9.8551416473E-02  9.8551416473E-02 -2.0853338966E-01
                      -9.8551416473E-02  2.0853338966E-01 -9.8551416473E-02
                      -2.0853338966E-01  9.8551416473E-02 -9.8551416473E-02
                      -9.8551416473E-02 -9.8551416473E-02  2.0853338966E-01
                      -9.8551416473E-02 -2.0853338966E-01  9.8551416473E-02
                      -2.0853338966E-01 -9.8551416473E-02  9.8551416473E-02
                       2.0853338966E-01  9.8551416473E-02  9.8551416473E-02
                       9.8551416473E-02  2.0853338966E-01  9.8551416473E-02
                       9.8551416473E-02  9.8551416473E-02  2.0853338966E-01
            znucl        1.00000    8.00000   14.00000

================================================================================

 chkinp: Checking input parameters for consistency, jdtset=  11.

 chkinp: Checking input parameters for consistency, jdtset=  12.

 chkinp: Checking input parameters for consistency, jdtset=  13.

 chkinp: Checking input parameters for consistency, jdtset=  14.

 chkinp: Checking input parameters for consistency, jdtset=  15.

 chkinp: Checking input parameters for consistency, jdtset=  21.

 chkinp: Checking input parameters for consistency, jdtset=  22.

 chkinp: Checking input parameters for consistency, jdtset=  23.

 chkinp: Checking input parameters for consistency, jdtset=  24.

 chkinp: Checking input parameters for consistency, jdtset=  25.

================================================================================
== DATASET 11 ==================================================================
-   mpi_nproc: 1, omp_nthreads: 8 (-1 if OMP is not activated)


--- !DatasetInfo
iteration_state: {dtset: 11, }
dimensions: {natom: 21, nkpt: 1, mband: 100, nsppol: 2, nspinor: 1, nspden: 2, mpw: 1791, }
cutoff_energies: {ecut:   5.0, pawecutdg:  -1.0, }
electrons: {nelect:   5.50000000E+01, charge:   1.00000000E+00, occopt:   3.00000000E+00, tsmear:   1.00000000E-05, }
meta: {optdriver: 0, ionmov: 0, optcell: 0, iscf: 7, paral_kgb: 0, }
...

 Real(R)+Recip(G) space primitive vectors, cartesian coordinates (Bohr,Bohr^-1):
 R(1)= 15.0000000  0.0000000  0.0000000  G(1)=  0.0666667  0.0000000  0.0000000
 R(2)=  0.0000000 15.0000000  0.0000000  G(2)=  0.0000000  0.0666667  0.0000000
 R(3)=  0.0000000  0.0000000 15.0000000  G(3)=  0.0000000  0.0000000  0.0666667
 Unit cell volume ucvol=  3.3750000E+03 bohr^3
 Angles (23,13,12)=  9.00000000E+01  9.00000000E+01  9.00000000E+01 degrees

 getcut: wavevector=  0.0000  0.0000  0.0000  ngfft=  32  32  32
         ecut(hartree)=      5.000   => boxcut(ratio)=   2.11938

--- Pseudopotential description ------------------------------------------------
- pspini: atom type   1  psp file is /Users/ali/Desktop/JDFTX/build-withlibxc/pseudopotentials/H.psp8
- pspatm: opening atomic psp file    /Users/ali/Desktop/JDFTX/build-withlibxc/pseudopotentials/H.psp8
- H     ONCVPSP-3.3.0  r_core=   1.00957   0.90680
-  1.00000   1.00000    171101                znucl, zion, pspdat
    8   -1012    1    4       300   0.00000   pspcod,pspxc,lmax,lloc,mmax,r2well
    2.99000000000000    0.00000000000000    0.00000000000000   rchrg,fchrg,qchrg
     nproj     2     1
     extension_switch     1
  pspatm : epsatm=    0.35491505
         --- l  ekb(1:nproj) -->
             0   -1.665338   -0.519510
             1   -0.275071
 pspatm: atomic psp has been read  and splines computed

- pspini: atom type   2  psp file is /Users/ali/Desktop/JDFTX/build-withlibxc/pseudopotentials/O.psp8
- pspatm: opening atomic psp file    /Users/ali/Desktop/JDFTX/build-withlibxc/pseudopotentials/O.psp8
- O     ONCVPSP-3.3.0  r_core=   1.35509   1.45563   1.35509
-  8.00000   6.00000    171101                znucl, zion, pspdat
    8   -1012    2    4       600   0.00000   pspcod,pspxc,lmax,lloc,mmax,r2well
    5.99000000000000    4.00000000000000    0.00000000000000   rchrg,fchrg,qchrg
     nproj     2     2     1
     extension_switch     1
  pspatm : epsatm=    6.27558977
         --- l  ekb(1:nproj) -->
             0    6.026028    0.816167
             1   -4.798959   -1.172522
             2   -1.033686
 pspatm: atomic psp has been read  and splines computed

- pspini: atom type   3  psp file is /Users/ali/Desktop/JDFTX/build-withlibxc/pseudopotentials/Si.psp8
- pspatm: opening atomic psp file    /Users/ali/Desktop/JDFTX/build-withlibxc/pseudopotentials/Si.psp8
- Si    ONCVPSP-3.3.0  r_core=   1.60303   1.72197   1.91712
- 14.00000   4.00000    171102                znucl, zion, pspdat
    8   -1012    2    4       600   0.00000   pspcod,pspxc,lmax,lloc,mmax,r2well
    5.99000000000000    4.00000000000000    0.00000000000000   rchrg,fchrg,qchrg
     nproj     2     2     2
     extension_switch     1
  pspatm : epsatm=    6.67004110
         --- l  ekb(1:nproj) -->
             0    5.565958    0.856966
             1    2.726111    0.629828
             2   -2.124804   -0.444604
 pspatm: atomic psp has been read  and splines computed

   3.51184653E+03                                ecore*ucvol(ha*bohr**3)
--------------------------------------------------------------------------------

_setup2: Arith. and geom. avg. npw (full set) are    1791.000    1791.000

================================================================================

--- !BeginCycle
iteration_state: {dtset: 11, }
solver: {iscf: 7, nstep: 100, nline: 4, wfoptalg: 0, }
tolerances: {tolrff: 2.00E-02, }
...

     iter   Etot(hartree)     deltaE(h) residm    vres2   diffor   maxfor   magn
 ETOT  1  -84.857900542076    -8.49E+01 1.14E-02 1.76E+03 5.3E-01 5.33E-01 1.000
 ETOT  2  -86.164247571265    -1.31E+00 1.62E-03 3.32E+02 3.1E-01 3.06E-01 1.000
 ETOT  3  -86.432824084555    -2.69E-01 3.00E-03 1.04E+00 1.1E-01 3.83E-01 1.000
 ETOT  4  -86.433568772054    -7.45E-04 2.21E-04 1.76E-01 3.4E-03 3.87E-01 1.000
 ETOT  5  -86.433601548728    -3.28E-05 4.51E-05 3.99E-02 3.7E-03 3.83E-01 1.000

 At SCF step    5, forces are sufficiently converged : 
  for the second time, max diff in force=  3.739E-03 is less than < tolrff=  2.000E-02 times max force

 Cartesian components of stress tensor (hartree/bohr^3)
  sigma(1 1)=  1.18557272E-03  sigma(3 2)=  0.00000000E+00
  sigma(2 2)=  1.18557272E-03  sigma(3 1)=  0.00000000E+00
  sigma(3 3)=  1.18557272E-03  sigma(2 1)=  0.00000000E+00


--- !ResultsGS
iteration_state: {dtset: 11, }
comment   : Summary of ground state results
lattice_vectors:
- [ 15.0000000,   0.0000000,   0.0000000, ]
- [  0.0000000,  15.0000000,   0.0000000, ]
- [  0.0000000,   0.0000000,  15.0000000, ]
lattice_lengths: [  15.00000,   15.00000,   15.00000, ]
lattice_angles: [ 90.000,  90.000,  90.000, ] # degrees, (23, 13, 12)
lattice_volume:   3.3750000E+03
convergence: {deltae: -3.278E-05, res2:  3.986E-02, residm:  4.514E-05, diffor:  3.739E-03, }
etotal    :  -8.64336015E+01
entropy   :   0.00000000E+00
fermie    :  -1.36925916E-01
cartesian_stress_tensor: # hartree/bohr^3
- [  1.18557272E-03,   0.00000000E+00,   0.00000000E+00, ]
- [  0.00000000E+00,   1.18557272E-03,   0.00000000E+00, ]
- [  0.00000000E+00,   0.00000000E+00,   1.18557272E-03, ]
pressure_GPa:  -3.4881E+01
xred      :
- [  0.0000E+00,   0.0000E+00,   0.0000E+00, Si]
- [  2.3690E-01,  -2.3690E-01,  -2.3690E-01, Si]
- [ -2.3690E-01,   2.3690E-01,  -2.3690E-01, Si]
- [ -2.3690E-01,  -2.3690E-01,   2.3690E-01, Si]
- [  2.3690E-01,   2.3690E-01,   2.3690E-01, Si]
- [  1.1704E-01,  -1.1704E-01,  -1.1704E-01,  O]
- [ -1.1704E-01,   1.1704E-01,  -1.1704E-01,  O]
- [ -1.1704E-01,  -1.1704E-01,   1.1704E-01,  O]
- [  1.1704E-01,   1.1704E-01,   1.1704E-01,  O]
- [  1.9710E-01,  -1.9710E-01,  -4.1707E-01,  H]
- [  1.9710E-01,  -4.1707E-01,  -1.9710E-01,  H]
- [  4.1707E-01,  -1.9710E-01,  -1.9710E-01,  H]
- [ -1.9710E-01,   1.9710E-01,  -4.1707E-01,  H]
- [ -1.9710E-01,   4.1707E-01,  -1.9710E-01,  H]
- [ -4.1707E-01,   1.9710E-01,  -1.9710E-01,  H]
- [ -1.9710E-01,  -1.9710E-01,   4.1707E-01,  H]
- [ -1.9710E-01,  -4.1707E-01,   1.9710E-01,  H]
- [ -4.1707E-01,  -1.9710E-01,   1.9710E-01,  H]
- [  4.1707E-01,   1.9710E-01,   1.9710E-01,  H]
- [  1.9710E-01,   4.1707E-01,   1.9710E-01,  H]
- [  1.9710E-01,   1.9710E-01,   4.1707E-01,  H]
cartesian_forces: # hartree/bohr
- [ -5.36938219E-18,   2.55045654E-18,   5.36938219E-18, ]
- [  5.09770797E-02,  -5.09770797E-02,  -5.09770797E-02, ]
- [ -5.09770797E-02,   5.09770797E-02,  -5.09770797E-02, ]
- [ -5.09770797E-02,  -5.09770797E-02,   5.09770797E-02, ]
- [  5.09770797E-02,   5.09770797E-02,   5.09770797E-02, ]
- [  3.82775461E-01,  -3.82775461E-01,  -3.82775461E-01, ]
- [ -3.82775461E-01,   3.82775461E-01,  -3.82775461E-01, ]
- [ -3.82775461E-01,  -3.82775461E-01,   3.82775461E-01, ]
- [  3.82775461E-01,   3.82775461E-01,   3.82775461E-01, ]
- [ -1.92238379E-03,   1.92238379E-03,  -7.12405014E-03, ]
- [ -1.92238379E-03,  -7.12405014E-03,   1.92238379E-03, ]
- [  7.12405014E-03,   1.92238379E-03,   1.92238379E-03, ]
- [  1.92238379E-03,  -1.92238379E-03,  -7.12405014E-03, ]
- [  1.92238379E-03,   7.12405014E-03,   1.92238379E-03, ]
- [ -7.12405014E-03,  -1.92238379E-03,   1.92238379E-03, ]
- [  1.92238379E-03,   1.92238379E-03,   7.12405014E-03, ]
- [  1.92238379E-03,  -7.12405014E-03,  -1.92238379E-03, ]
- [ -7.12405014E-03,   1.92238379E-03,  -1.92238379E-03, ]
- [  7.12405014E-03,  -1.92238379E-03,  -1.92238379E-03, ]
- [ -1.92238379E-03,   7.12405014E-03,  -1.92238379E-03, ]
- [ -1.92238379E-03,  -1.92238379E-03,   7.12405014E-03, ]
force_length_stats: {min:   8.01032825E-18, max:   6.62986546E-01, mean:   1.47458466E-01, }
...

 Integrated electronic and magnetization densities in atomic spheres:
 ---------------------------------------------------------------------
 Radius=ratsph(iatom), smearing ratsm=  0.0000. Diff(up-dn)=approximate z local magnetic moment.
 Atom    Radius    up_density   dn_density  Total(up+dn)  Diff(up-dn)
    1   2.00000     1.493986     1.494103      2.988089    -0.000117
    2   2.00000     1.008614     0.994619      2.003234     0.013995
    3   2.00000     1.008614     0.994619      2.003234     0.013995
    4   2.00000     1.008614     0.994619      2.003234     0.013995
    5   2.00000     1.008614     0.994619      2.003234     0.013995
    6   2.00000     3.105402     2.979015      6.084417     0.126387
    7   2.00000     3.105402     2.979015      6.084417     0.126387
    8   2.00000     3.105402     2.979015      6.084417     0.126387
    9   2.00000     3.105402     2.979015      6.084417     0.126387
   10   2.00000     0.690881     0.658876      1.349757     0.032005
   11   2.00000     0.690881     0.658876      1.349757     0.032005
   12   2.00000     0.690881     0.658876      1.349757     0.032005
   13   2.00000     0.690881     0.658876      1.349757     0.032005
   14   2.00000     0.690881     0.658876      1.349757     0.032005
   15   2.00000     0.690881     0.658876      1.349757     0.032005
   16   2.00000     0.690881     0.658876      1.349757     0.032005
   17   2.00000     0.690881     0.658876      1.349757     0.032005
   18   2.00000     0.690881     0.658876      1.349757     0.032005
   19   2.00000     0.690881     0.658876      1.349757     0.032005
   20   2.00000     0.690881     0.658876      1.349757     0.032005
   21   2.00000     0.690881     0.658876      1.349757     0.032005
 ---------------------------------------------------------------------
  Sum:             26.240625    25.295152     51.535777     0.945474
 Total magnetization (from the atomic spheres):             0.945474
 Total magnetization (exact up - dn):                       1.000000
================================================================================

 ----iterations are completed or convergence reached----

 Mean square residual over all n,k,spin=   92.721E-08; max=  45.142E-06
 reduced coordinates (array xred) for   21 atoms
       0.000000000000      0.000000000000      0.000000000000
       0.236900758113     -0.236900758113     -0.236900758113
      -0.236900758113      0.236900758113     -0.236900758113
      -0.236900758113     -0.236900758113      0.236900758113
       0.236900758113      0.236900758113      0.236900758113
       0.117043274193     -0.117043274193     -0.117043274193
      -0.117043274193      0.117043274193     -0.117043274193
      -0.117043274193     -0.117043274193      0.117043274193
       0.117043274193      0.117043274193      0.117043274193
       0.197102832947     -0.197102832947     -0.417066779311
       0.197102832947     -0.417066779311     -0.197102832947
       0.417066779311     -0.197102832947     -0.197102832947
      -0.197102832947      0.197102832947     -0.417066779311
      -0.197102832947      0.417066779311     -0.197102832947
      -0.417066779311      0.197102832947     -0.197102832947
      -0.197102832947     -0.197102832947      0.417066779311
      -0.197102832947     -0.417066779311      0.197102832947
      -0.417066779311     -0.197102832947      0.197102832947
       0.417066779311      0.197102832947      0.197102832947
       0.197102832947      0.417066779311      0.197102832947
       0.197102832947      0.197102832947      0.417066779311
 rms dE/dt=  2.5285E+00; max dE/dt=  5.7416E+00; dE/dt below (all hartree)
    1       0.000000000000      0.000000000000      0.000000000000
    2      -0.764656194800      0.764656194800      0.764656194800
    3       0.764656194800     -0.764656194800      0.764656194800
    4       0.764656194800      0.764656194800     -0.764656194800
    5      -0.764656194800     -0.764656194800     -0.764656194800
    6      -5.741631910466      5.741631910466      5.741631910466
    7       5.741631910466     -5.741631910466      5.741631910466
    8       5.741631910466      5.741631910466     -5.741631910466
    9      -5.741631910466     -5.741631910466     -5.741631910466
   10       0.028835756844     -0.028835756844      0.106860752116
   11       0.028835756844      0.106860752116     -0.028835756844
   12      -0.106860752116     -0.028835756844     -0.028835756844
   13      -0.028835756844      0.028835756844      0.106860752116
   14      -0.028835756844     -0.106860752116     -0.028835756844
   15       0.106860752116      0.028835756844     -0.028835756844
   16      -0.028835756844     -0.028835756844     -0.106860752116
   17      -0.028835756844      0.106860752116      0.028835756844
   18       0.106860752116     -0.028835756844      0.028835756844
   19      -0.106860752116      0.028835756844      0.028835756844
   20       0.028835756844     -0.106860752116      0.028835756844
   21       0.028835756844      0.028835756844     -0.106860752116

 cartesian coordinates (angstrom) at end:
    1      0.00000000000000     0.00000000000000     0.00000000000000
    2      1.88043722836728    -1.88043722836728    -1.88043722836728
    3     -1.88043722836728     1.88043722836728    -1.88043722836728
    4     -1.88043722836728    -1.88043722836728     1.88043722836728
    5      1.88043722836728     1.88043722836728     1.88043722836728
    6      0.92904949682336    -0.92904949682336    -0.92904949682336
    7     -0.92904949682336     0.92904949682336    -0.92904949682336
    8     -0.92904949682336    -0.92904949682336     0.92904949682336
    9      0.92904949682336     0.92904949682336     0.92904949682336
   10      1.56453490416110    -1.56453490416110    -3.31053351107177
   11      1.56453490416110    -3.31053351107177    -1.56453490416110
   12      3.31053351107177    -1.56453490416110    -1.56453490416110
   13     -1.56453490416110     1.56453490416110    -3.31053351107177
   14     -1.56453490416110     3.31053351107177    -1.56453490416110
   15     -3.31053351107177     1.56453490416110    -1.56453490416110
   16     -1.56453490416110    -1.56453490416110     3.31053351107177
   17     -1.56453490416110    -3.31053351107177     1.56453490416110
   18     -3.31053351107177    -1.56453490416110     1.56453490416110
   19      3.31053351107177     1.56453490416110     1.56453490416110
   20      1.56453490416110     3.31053351107177     1.56453490416110
   21      1.56453490416110     1.56453490416110     3.31053351107177

 cartesian forces (hartree/bohr) at end:
    1     -0.00000000000000     0.00000000000000     0.00000000000000
    2      0.05097707965336    -0.05097707965336    -0.05097707965336
    3     -0.05097707965336     0.05097707965336    -0.05097707965336
    4     -0.05097707965336    -0.05097707965336     0.05097707965336
    5      0.05097707965336     0.05097707965336     0.05097707965336
    6      0.38277546069773    -0.38277546069773    -0.38277546069773
    7     -0.38277546069773     0.38277546069773    -0.38277546069773
    8     -0.38277546069773    -0.38277546069773     0.38277546069773
    9      0.38277546069773     0.38277546069773     0.38277546069773
   10     -0.00192238378958     0.00192238378958    -0.00712405014106
   11     -0.00192238378958    -0.00712405014106     0.00192238378958
   12      0.00712405014106     0.00192238378958     0.00192238378958
   13      0.00192238378958    -0.00192238378958    -0.00712405014106
   14      0.00192238378958     0.00712405014106     0.00192238378958
   15     -0.00712405014106    -0.00192238378958     0.00192238378958
   16      0.00192238378958     0.00192238378958     0.00712405014106
   17      0.00192238378958    -0.00712405014106    -0.00192238378958
   18     -0.00712405014106     0.00192238378958    -0.00192238378958
   19      0.00712405014106    -0.00192238378958    -0.00192238378958
   20     -0.00192238378958     0.00712405014106    -0.00192238378958
   21     -0.00192238378958    -0.00192238378958     0.00712405014106
 frms,max,avg= 1.6856473E-01 3.8277546E-01   0.000E+00  0.000E+00  0.000E+00 h/b

 cartesian forces (eV/Angstrom) at end:
    1     -0.00000000000000     0.00000000000000     0.00000000000000
    2      2.62134661128995    -2.62134661128995    -2.62134661128995
    3     -2.62134661128995     2.62134661128995    -2.62134661128995
    4     -2.62134661128995    -2.62134661128995     2.62134661128995
    5      2.62134661128995     2.62134661128995     2.62134661128995
    6     19.68310392843163   -19.68310392843163   -19.68310392843163
    7    -19.68310392843163    19.68310392843163   -19.68310392843163
    8    -19.68310392843163   -19.68310392843163    19.68310392843163
    9     19.68310392843163    19.68310392843163    19.68310392843163
   10     -0.09885294070767     0.09885294070767    -0.36633335653801
   11     -0.09885294070767    -0.36633335653801     0.09885294070767
   12      0.36633335653801     0.09885294070767     0.09885294070767
   13      0.09885294070767    -0.09885294070767    -0.36633335653801
   14      0.09885294070767     0.36633335653801     0.09885294070767
   15     -0.36633335653801    -0.09885294070767     0.09885294070767
   16      0.09885294070767     0.09885294070767     0.36633335653801
   17      0.09885294070767    -0.36633335653801    -0.09885294070767
   18     -0.36633335653801     0.09885294070767    -0.09885294070767
   19      0.36633335653801    -0.09885294070767    -0.09885294070767
   20     -0.09885294070767     0.36633335653801    -0.09885294070767
   21     -0.09885294070767    -0.09885294070767     0.36633335653801
 frms,max,avg= 8.6679462E+00 1.9683104E+01   0.000E+00  0.000E+00  0.000E+00 e/A
 length scales= 15.000000000000 15.000000000000 15.000000000000 bohr
              =  7.937658128850  7.937658128850  7.937658128850 angstroms
 prteigrs : about to open file sth1_relaxo_DS11_EIG
 Fermi (or HOMO) energy (hartree) =  -0.13693   Average Vxc (hartree)=  -0.20105
 Magnetization (Bohr magneton)=  1.00000000E+00
 Total spin up =  2.80000000E+01   Total spin down =  2.70000000E+01
 Eigenvalues (hartree) for nkpt=   1  k points, SPIN UP:
 kpt#   1, nband=100, wtk=  1.00000, kpt=  0.0000  0.0000  0.0000 (reduced coord)
  -1.28108   -1.26676   -1.26676   -1.26676   -0.53060   -0.44922   -0.44922   -0.44922
  -0.34479   -0.31828   -0.31828   -0.31828   -0.27344   -0.27344   -0.26106   -0.26106
  -0.26106   -0.24166   -0.24166   -0.24166   -0.18247   -0.18247   -0.17633   -0.17633
  -0.17633   -0.14294   -0.14294   -0.14294   -0.01930    0.04877    0.06894    0.06894
   0.06894    0.08893    0.08893    0.08893    0.09511    0.09511    0.12674    0.15807
   0.15807    0.17515    0.17515    0.17515    0.18573    0.18573    0.18573    0.19064
   0.19064    0.19064    0.20032    0.20032    0.20032    0.20862    0.20862    0.21766
   0.22710    0.22710    0.22710    0.26842    0.28422    0.28422    0.28422    0.30377
   0.30377    0.30377    0.30548    0.30548    0.30548    0.33724    0.35682    0.35740
   0.35740    0.35740    0.37896    0.38526    0.38526    0.39591    0.39591    0.39591
   0.40677    0.40677    0.41839    0.42811    0.42811    0.43306    0.43306    0.43306
   0.45094    0.45094    0.45094    0.45420    0.45420    0.45421    0.45793    0.45793
   0.45793    0.46829    0.46831    0.46849
      occupation numbers for kpt#   1
   1.00000    1.00000    1.00000    1.00000    1.00000    1.00000    1.00000    1.00000
   1.00000    1.00000    1.00000    1.00000    1.00000    1.00000    1.00000    1.00000
   1.00000    1.00000    1.00000    1.00000    1.00000    1.00000    1.00000    1.00000
   1.00000    1.00000    1.00000    1.00000    0.00000    0.00000    0.00000    0.00000
   0.00000    0.00000    0.00000    0.00000    0.00000    0.00000    0.00000    0.00000
   0.00000    0.00000    0.00000    0.00000    0.00000    0.00000    0.00000    0.00000
   0.00000    0.00000    0.00000    0.00000    0.00000    0.00000    0.00000    0.00000
   0.00000    0.00000    0.00000    0.00000    0.00000    0.00000    0.00000    0.00000
   0.00000    0.00000    0.00000    0.00000    0.00000    0.00000    0.00000    0.00000
   0.00000    0.00000    0.00000    0.00000    0.00000    0.00000    0.00000    0.00000
   0.00000    0.00000    0.00000    0.00000    0.00000    0.00000    0.00000    0.00000
   0.00000    0.00000    0.00000    0.00000    0.00000    0.00000    0.00000    0.00000
   0.00000    0.00000    0.00000    0.00000
 Eigenvalues (hartree) for nkpt=   1  k points, SPIN DOWN:
 kpt#   1, nband=100, wtk=  1.00000, kpt=  0.0000  0.0000  0.0000 (reduced coord)
  -1.27567   -1.26120   -1.26120   -1.26120   -0.52875   -0.44680   -0.44680   -0.44680
  -0.34178   -0.31483   -0.31483   -0.31483   -0.26881   -0.26881   -0.25676   -0.25676
  -0.25676   -0.23724   -0.23724   -0.23724   -0.17776   -0.17776   -0.17202   -0.17202
  -0.17202   -0.13693   -0.13693   -0.13693   -0.01817    0.04979    0.07019    0.07019
   0.07019    0.09034    0.09034    0.09034    0.09644    0.09644    0.12791    0.15910
   0.15910    0.17729    0.17729    0.17729    0.18688    0.18688    0.18688    0.19310
   0.19310    0.19310    0.20183    0.20183    0.20183    0.21007    0.21007    0.21838
   0.22826    0.22826    0.22826    0.26907    0.28506    0.28506    0.28506    0.30453
   0.30453    0.30453    0.30740    0.30740    0.30740    0.33813    0.35819    0.35848
   0.35848    0.35848    0.38005    0.38668    0.38668    0.39737    0.39737    0.39737
   0.40796    0.40796    0.42022    0.42923    0.42923    0.43417    0.43417    0.43417
   0.45240    0.45240    0.45240    0.45567    0.45567    0.45568    0.45881    0.45881
   0.45881    0.46947    0.46948    0.46969
      occupation numbers for kpt#   1
   1.00000    1.00000    1.00000    1.00000    1.00000    1.00000    1.00000    1.00000
   1.00000    1.00000    1.00000    1.00000    1.00000    1.00000    1.00000    1.00000
   1.00000    1.00000    1.00000    1.00000    1.00000    1.00000    1.00000    1.00000
   1.00000    0.66667    0.66667    0.66667    0.00000    0.00000    0.00000    0.00000
   0.00000    0.00000    0.00000    0.00000    0.00000    0.00000    0.00000    0.00000
   0.00000    0.00000    0.00000    0.00000    0.00000    0.00000    0.00000    0.00000
   0.00000    0.00000    0.00000    0.00000    0.00000    0.00000    0.00000    0.00000
   0.00000    0.00000    0.00000    0.00000    0.00000    0.00000    0.00000    0.00000
   0.00000    0.00000    0.00000    0.00000    0.00000    0.00000    0.00000    0.00000
   0.00000    0.00000    0.00000    0.00000    0.00000    0.00000    0.00000    0.00000
   0.00000    0.00000    0.00000    0.00000    0.00000    0.00000    0.00000    0.00000
   0.00000    0.00000    0.00000    0.00000    0.00000    0.00000    0.00000    0.00000
   0.00000    0.00000    0.00000    0.00000

 Calculation was performed for a charged system with PBC
 You may consider including the monopole correction to the total energy
 The correction is to be divided by the dielectric constant

--- !EnergyTerms
iteration_state     : {dtset: 11, }
comment             : Components of total free energy in Hartree
kinetic             :  4.07983144577844E+01
hartree             :  6.25524339380440E+01
xc                  : -2.56629260246508E+01
Ewald energy        : -5.03322575371364E+00
psp_core            :  1.04054711858210E+00
local_psp           : -1.63294827451894E+02
non_local_psp       :  3.16610126254514E+00
internal            : -8.64335824533032E+01
'-kT*entropy'       : -1.90954250486281E-05
total_energy        : -8.64336015487282E+01
total_energy_eV     : -2.35197791014473E+03
band_energy         : -2.30167764681227E+01
monopole_correction :  9.45765826493538E-02
monopole_correction_eV:  2.57355969463858E+00
...


 Cartesian components of stress tensor (hartree/bohr^3)
  sigma(1 1)=  1.18557272E-03  sigma(3 2)=  0.00000000E+00
  sigma(2 2)=  1.18557272E-03  sigma(3 1)=  0.00000000E+00
  sigma(3 3)=  1.18557272E-03  sigma(2 1)=  0.00000000E+00

-Cartesian components of stress tensor (GPa)         [Pressure= -3.4881E+01 GPa]
- sigma(1 1)=  3.48807478E+01  sigma(3 2)=  0.00000000E+00
- sigma(2 2)=  3.48807478E+01  sigma(3 1)=  0.00000000E+00
- sigma(3 3)=  3.48807478E+01  sigma(2 1)=  0.00000000E+00

================================================================================
== DATASET 12 ==================================================================
-   mpi_nproc: 1, omp_nthreads: 8 (-1 if OMP is not activated)


--- !DatasetInfo
iteration_state: {dtset: 12, }
dimensions: {natom: 21, nkpt: 1, mband: 100, nsppol: 2, nspinor: 1, nspden: 2, mpw: 7521, }
cutoff_energies: {ecut:  13.0, pawecutdg:  -1.0, }
electrons: {nelect:   5.50000000E+01, charge:   1.00000000E+00, occopt:   3.00000000E+00, tsmear:   1.00000000E-05, }
meta: {optdriver: 0, ionmov: 0, optcell: 0, iscf: 7, paral_kgb: 0, }
...

 Real(R)+Recip(G) space primitive vectors, cartesian coordinates (Bohr,Bohr^-1):
 R(1)= 15.0000000  0.0000000  0.0000000  G(1)=  0.0666667  0.0000000  0.0000000
 R(2)=  0.0000000 15.0000000  0.0000000  G(2)=  0.0000000  0.0666667  0.0000000
 R(3)=  0.0000000  0.0000000 15.0000000  G(3)=  0.0000000  0.0000000  0.0666667
 Unit cell volume ucvol=  3.3750000E+03 bohr^3
 Angles (23,13,12)=  9.00000000E+01  9.00000000E+01  9.00000000E+01 degrees

 getcut: wavevector=  0.0000  0.0000  0.0000  ngfft=  50  50  50
         ecut(hartree)=     13.000   => boxcut(ratio)=   2.05372

--- Pseudopotential description ------------------------------------------------
- pspini: atom type   1  psp file is /Users/ali/Desktop/JDFTX/build-withlibxc/pseudopotentials/H.psp8
- pspatm: opening atomic psp file    /Users/ali/Desktop/JDFTX/build-withlibxc/pseudopotentials/H.psp8
- H     ONCVPSP-3.3.0  r_core=   1.00957   0.90680
-  1.00000   1.00000    171101                znucl, zion, pspdat
    8   -1012    1    4       300   0.00000   pspcod,pspxc,lmax,lloc,mmax,r2well
    2.99000000000000    0.00000000000000    0.00000000000000   rchrg,fchrg,qchrg
     nproj     2     1
     extension_switch     1
  pspatm : epsatm=    0.35491505
         --- l  ekb(1:nproj) -->
             0   -1.665338   -0.519510
             1   -0.275071
 pspatm: atomic psp has been read  and splines computed

- pspini: atom type   2  psp file is /Users/ali/Desktop/JDFTX/build-withlibxc/pseudopotentials/O.psp8
- pspatm: opening atomic psp file    /Users/ali/Desktop/JDFTX/build-withlibxc/pseudopotentials/O.psp8
- O     ONCVPSP-3.3.0  r_core=   1.35509   1.45563   1.35509
-  8.00000   6.00000    171101                znucl, zion, pspdat
    8   -1012    2    4       600   0.00000   pspcod,pspxc,lmax,lloc,mmax,r2well
    5.99000000000000    4.00000000000000    0.00000000000000   rchrg,fchrg,qchrg
     nproj     2     2     1
     extension_switch     1
  pspatm : epsatm=    6.27558977
         --- l  ekb(1:nproj) -->
             0    6.026028    0.816167
             1   -4.798959   -1.172522
             2   -1.033686
 pspatm: atomic psp has been read  and splines computed

- pspini: atom type   3  psp file is /Users/ali/Desktop/JDFTX/build-withlibxc/pseudopotentials/Si.psp8
- pspatm: opening atomic psp file    /Users/ali/Desktop/JDFTX/build-withlibxc/pseudopotentials/Si.psp8
- Si    ONCVPSP-3.3.0  r_core=   1.60303   1.72197   1.91712
- 14.00000   4.00000    171102                znucl, zion, pspdat
    8   -1012    2    4       600   0.00000   pspcod,pspxc,lmax,lloc,mmax,r2well
    5.99000000000000    4.00000000000000    0.00000000000000   rchrg,fchrg,qchrg
     nproj     2     2     2
     extension_switch     1
  pspatm : epsatm=    6.67004110
         --- l  ekb(1:nproj) -->
             0    5.565958    0.856966
             1    2.726111    0.629828
             2   -2.124804   -0.444604
 pspatm: atomic psp has been read  and splines computed

--------------------------------------------------------------------------------

_setup2: Arith. and geom. avg. npw (full set) are    7521.000    7521.000

================================================================================

--- !BeginCycle
iteration_state: {dtset: 12, }
solver: {iscf: 7, nstep: 100, nline: 4, wfoptalg: 0, }
tolerances: {tolrff: 2.00E-02, }
...

     iter   Etot(hartree)     deltaE(h) residm    vres2   diffor   maxfor   magn
 ETOT  1  -92.260065522703    -9.23E+01 1.21E-02 1.53E+02 2.3E-02 2.28E-02 1.000
 ETOT  2  -92.337604818717    -7.75E-02 3.42E-04 8.17E+01 4.3E-02 2.01E-02 1.000
 ETOT  3  -92.345836033023    -8.23E-03 3.42E-04 1.17E+01 2.9E-02 9.17E-03 1.000
 ETOT  4  -92.351398202075    -5.56E-03 9.37E-05 4.56E+00 1.5E-02 5.88E-03 1.000
 ETOT  5  -92.351978389411    -5.80E-04 8.82E-05 2.69E-01 4.2E-03 3.05E-03 1.000
 ETOT  6  -92.351987726471    -9.34E-06 1.95E-05 3.55E-02 3.5E-04 2.77E-03 1.000
 ETOT  7  -92.351988471131    -7.45E-07 1.99E-05 7.10E-03 3.1E-04 3.08E-03 1.000
 ETOT  8  -92.351988757607    -2.86E-07 1.38E-05 7.25E-04 1.5E-04 2.92E-03 1.000
 ETOT  9  -92.351988779860    -2.23E-08 7.55E-06 3.62E-05 8.8E-05 3.01E-03 1.000
 ETOT 10  -92.351988781157    -1.30E-09 1.68E-05 3.01E-06 2.1E-05 2.99E-03 1.000
 ETOT 11  -92.351988781250    -9.27E-11 8.54E-06 2.53E-07 5.1E-06 3.00E-03 1.000

 At SCF step   11, forces are sufficiently converged : 
  for the second time, max diff in force=  5.078E-06 is less than < tolrff=  2.000E-02 times max force

 Cartesian components of stress tensor (hartree/bohr^3)
  sigma(1 1)=  9.51882616E-04  sigma(3 2)=  0.00000000E+00
  sigma(2 2)=  9.51882616E-04  sigma(3 1)=  0.00000000E+00
  sigma(3 3)=  9.51882616E-04  sigma(2 1)=  0.00000000E+00


--- !ResultsGS
iteration_state: {dtset: 12, }
comment   : Summary of ground state results
lattice_vectors:
- [ 15.0000000,   0.0000000,   0.0000000, ]
- [  0.0000000,  15.0000000,   0.0000000, ]
- [  0.0000000,   0.0000000,  15.0000000, ]
lattice_lengths: [  15.00000,   15.00000,   15.00000, ]
lattice_angles: [ 90.000,  90.000,  90.000, ] # degrees, (23, 13, 12)
lattice_volume:   3.3750000E+03
convergence: {deltae: -9.267E-11, res2:  2.531E-07, residm:  8.539E-06, diffor:  5.078E-06, }
etotal    :  -9.23519888E+01
entropy   :   0.00000000E+00
fermie    :  -1.71258666E-01
cartesian_stress_tensor: # hartree/bohr^3
- [  9.51882616E-04,   0.00000000E+00,   0.00000000E+00, ]
- [  0.00000000E+00,   9.51882616E-04,   0.00000000E+00, ]
- [  0.00000000E+00,   0.00000000E+00,   9.51882616E-04, ]
pressure_GPa:  -2.8005E+01
xred      :
- [  0.0000E+00,   0.0000E+00,   0.0000E+00, Si]
- [  2.3690E-01,  -2.3690E-01,  -2.3690E-01, Si]
- [ -2.3690E-01,   2.3690E-01,  -2.3690E-01, Si]
- [ -2.3690E-01,  -2.3690E-01,   2.3690E-01, Si]
- [  2.3690E-01,   2.3690E-01,   2.3690E-01, Si]
- [  1.1704E-01,  -1.1704E-01,  -1.1704E-01,  O]
- [ -1.1704E-01,   1.1704E-01,  -1.1704E-01,  O]
- [ -1.1704E-01,  -1.1704E-01,   1.1704E-01,  O]
- [  1.1704E-01,   1.1704E-01,   1.1704E-01,  O]
- [  1.9710E-01,  -1.9710E-01,  -4.1707E-01,  H]
- [  1.9710E-01,  -4.1707E-01,  -1.9710E-01,  H]
- [  4.1707E-01,  -1.9710E-01,  -1.9710E-01,  H]
- [ -1.9710E-01,   1.9710E-01,  -4.1707E-01,  H]
- [ -1.9710E-01,   4.1707E-01,  -1.9710E-01,  H]
- [ -4.1707E-01,   1.9710E-01,  -1.9710E-01,  H]
- [ -1.9710E-01,  -1.9710E-01,   4.1707E-01,  H]
- [ -1.9710E-01,  -4.1707E-01,   1.9710E-01,  H]
- [ -4.1707E-01,  -1.9710E-01,   1.9710E-01,  H]
- [  4.1707E-01,   1.9710E-01,   1.9710E-01,  H]
- [  1.9710E-01,   4.1707E-01,   1.9710E-01,  H]
- [  1.9710E-01,   1.9710E-01,   4.1707E-01,  H]
cartesian_forces: # hartree/bohr
- [ -6.45358436E-22,   2.00061115E-20,   5.16286749E-20, ]
- [  1.38681968E-03,  -1.38681968E-03,  -1.38681968E-03, ]
- [ -1.38681968E-03,   1.38681968E-03,  -1.38681968E-03, ]
- [ -1.38681968E-03,  -1.38681968E-03,   1.38681968E-03, ]
- [  1.38681968E-03,   1.38681968E-03,   1.38681968E-03, ]
- [  2.99699849E-03,  -2.99699849E-03,  -2.99699849E-03, ]
- [ -2.99699849E-03,   2.99699849E-03,  -2.99699849E-03, ]
- [ -2.99699849E-03,  -2.99699849E-03,   2.99699849E-03, ]
- [  2.99699849E-03,   2.99699849E-03,   2.99699849E-03, ]
- [ -8.27354744E-05,   8.27354744E-05,  -1.28259036E-03, ]
- [ -8.27354744E-05,  -1.28259036E-03,   8.27354744E-05, ]
- [  1.28259036E-03,   8.27354744E-05,   8.27354744E-05, ]
- [  8.27354744E-05,  -8.27354744E-05,  -1.28259036E-03, ]
- [  8.27354744E-05,   1.28259036E-03,   8.27354744E-05, ]
- [ -1.28259036E-03,  -8.27354744E-05,   8.27354744E-05, ]
- [  8.27354744E-05,   8.27354744E-05,   1.28259036E-03, ]
- [  8.27354744E-05,  -1.28259036E-03,  -8.27354744E-05, ]
- [ -1.28259036E-03,   8.27354744E-05,  -8.27354744E-05, ]
- [  1.28259036E-03,  -8.27354744E-05,  -8.27354744E-05, ]
- [ -8.27354744E-05,   1.28259036E-03,  -8.27354744E-05, ]
- [ -8.27354744E-05,  -8.27354744E-05,   1.28259036E-03, ]
force_length_stats: {min:   5.53731077E-20, max:   5.19095366E-03, mean:   2.18223708E-03, }
...

 Integrated electronic and magnetization densities in atomic spheres:
 ---------------------------------------------------------------------
 Radius=ratsph(iatom), smearing ratsm=  0.0000. Diff(up-dn)=approximate z local magnetic moment.
 Atom    Radius    up_density   dn_density  Total(up+dn)  Diff(up-dn)
    1   2.00000     1.222410     1.226061      2.448471    -0.003651
    2   2.00000     1.004288     0.987524      1.991812     0.016765
    3   2.00000     1.004288     0.987524      1.991812     0.016765
    4   2.00000     1.004288     0.987524      1.991812     0.016765
    5   2.00000     1.004288     0.987524      1.991812     0.016765
    6   2.00000     3.224773     3.103807      6.328580     0.120965
    7   2.00000     3.224773     3.103807      6.328580     0.120965
    8   2.00000     3.224773     3.103807      6.328580     0.120965
    9   2.00000     3.224773     3.103807      6.328580     0.120965
   10   2.00000     0.709994     0.673336      1.383330     0.036658
   11   2.00000     0.709994     0.673336      1.383330     0.036658
   12   2.00000     0.709994     0.673336      1.383330     0.036658
   13   2.00000     0.709994     0.673336      1.383330     0.036658
   14   2.00000     0.709994     0.673336      1.383330     0.036658
   15   2.00000     0.709994     0.673336      1.383330     0.036658
   16   2.00000     0.709994     0.673336      1.383330     0.036658
   17   2.00000     0.709994     0.673336      1.383330     0.036658
   18   2.00000     0.709994     0.673336      1.383330     0.036658
   19   2.00000     0.709994     0.673336      1.383330     0.036658
   20   2.00000     0.709994     0.673336      1.383330     0.036658
   21   2.00000     0.709994     0.673336      1.383330     0.036658
 ---------------------------------------------------------------------
  Sum:             26.658585    25.671418     52.330003     0.987168
 Total magnetization (from the atomic spheres):             0.987168
 Total magnetization (exact up - dn):                       1.000000
================================================================================

 ----iterations are completed or convergence reached----

 Mean square residual over all n,k,spin=   12.898E-08; max=  85.390E-07
 reduced coordinates (array xred) for   21 atoms
       0.000000000000      0.000000000000      0.000000000000
       0.236900758113     -0.236900758113     -0.236900758113
      -0.236900758113      0.236900758113     -0.236900758113
      -0.236900758113     -0.236900758113      0.236900758113
       0.236900758113      0.236900758113      0.236900758113
       0.117043274193     -0.117043274193     -0.117043274193
      -0.117043274193      0.117043274193     -0.117043274193
      -0.117043274193     -0.117043274193      0.117043274193
       0.117043274193      0.117043274193      0.117043274193
       0.197102832947     -0.197102832947     -0.417066779311
       0.197102832947     -0.417066779311     -0.197102832947
       0.417066779311     -0.197102832947     -0.197102832947
      -0.197102832947      0.197102832947     -0.417066779311
      -0.197102832947      0.417066779311     -0.197102832947
      -0.417066779311      0.197102832947     -0.197102832947
      -0.197102832947     -0.197102832947      0.417066779311
      -0.197102832947     -0.417066779311      0.197102832947
      -0.417066779311     -0.197102832947      0.197102832947
       0.417066779311      0.197102832947      0.197102832947
       0.197102832947      0.417066779311      0.197102832947
       0.197102832947      0.197102832947      0.417066779311
 rms dE/dt=  2.3205E-02; max dE/dt=  4.4955E-02; dE/dt below (all hartree)
    1       0.000000000000      0.000000000000      0.000000000000
    2      -0.020802295254      0.020802295254      0.020802295254
    3       0.020802295254     -0.020802295254      0.020802295254
    4       0.020802295254      0.020802295254     -0.020802295254
    5      -0.020802295254     -0.020802295254     -0.020802295254
    6      -0.044954977376      0.044954977376      0.044954977376
    7       0.044954977376     -0.044954977376      0.044954977376
    8       0.044954977376      0.044954977376     -0.044954977376
    9      -0.044954977376     -0.044954977376     -0.044954977376
   10       0.001241032115     -0.001241032115      0.019238855338
   11       0.001241032115      0.019238855338     -0.001241032115
   12      -0.019238855338     -0.001241032115     -0.001241032115
   13      -0.001241032115      0.001241032115      0.019238855338
   14      -0.001241032115     -0.019238855338     -0.001241032115
   15       0.019238855338      0.001241032115     -0.001241032115
   16      -0.001241032115     -0.001241032115     -0.019238855338
   17      -0.001241032115      0.019238855338      0.001241032115
   18       0.019238855338     -0.001241032115      0.001241032115
   19      -0.019238855338      0.001241032115      0.001241032115
   20       0.001241032115     -0.019238855338      0.001241032115
   21       0.001241032115      0.001241032115     -0.019238855338

 cartesian coordinates (angstrom) at end:
    1      0.00000000000000     0.00000000000000     0.00000000000000
    2      1.88043722836728    -1.88043722836728    -1.88043722836728
    3     -1.88043722836728     1.88043722836728    -1.88043722836728
    4     -1.88043722836728    -1.88043722836728     1.88043722836728
    5      1.88043722836728     1.88043722836728     1.88043722836728
    6      0.92904949682336    -0.92904949682336    -0.92904949682336
    7     -0.92904949682336     0.92904949682336    -0.92904949682336
    8     -0.92904949682336    -0.92904949682336     0.92904949682336
    9      0.92904949682336     0.92904949682336     0.92904949682336
   10      1.56453490416110    -1.56453490416110    -3.31053351107177
   11      1.56453490416110    -3.31053351107177    -1.56453490416110
   12      3.31053351107177    -1.56453490416110    -1.56453490416110
   13     -1.56453490416110     1.56453490416110    -3.31053351107177
   14     -1.56453490416110     3.31053351107177    -1.56453490416110
   15     -3.31053351107177     1.56453490416110    -1.56453490416110
   16     -1.56453490416110    -1.56453490416110     3.31053351107177
[...]
                      -4.1706677931E-01 -1.9710283295E-01  1.9710283295E-01
                       4.1706677931E-01  1.9710283295E-01  1.9710283295E-01
                       1.9710283295E-01  4.1706677931E-01  1.9710283295E-01
                       1.9710283295E-01  1.9710283295E-01  4.1706677931E-01
             xred12    0.0000000000E+00  0.0000000000E+00  0.0000000000E+00
                       2.3690075811E-01 -2.3690075811E-01 -2.3690075811E-01
                      -2.3690075811E-01  2.3690075811E-01 -2.3690075811E-01
                      -2.3690075811E-01 -2.3690075811E-01  2.3690075811E-01
                       2.3690075811E-01  2.3690075811E-01  2.3690075811E-01
                       1.1704327419E-01 -1.1704327419E-01 -1.1704327419E-01
                      -1.1704327419E-01  1.1704327419E-01 -1.1704327419E-01
                      -1.1704327419E-01 -1.1704327419E-01  1.1704327419E-01
                       1.1704327419E-01  1.1704327419E-01  1.1704327419E-01
                       1.9710283295E-01 -1.9710283295E-01 -4.1706677931E-01
                       1.9710283295E-01 -4.1706677931E-01 -1.9710283295E-01
                       4.1706677931E-01 -1.9710283295E-01 -1.9710283295E-01
                      -1.9710283295E-01  1.9710283295E-01 -4.1706677931E-01
                      -1.9710283295E-01  4.1706677931E-01 -1.9710283295E-01
                      -4.1706677931E-01  1.9710283295E-01 -1.9710283295E-01
                      -1.9710283295E-01 -1.9710283295E-01  4.1706677931E-01
                      -1.9710283295E-01 -4.1706677931E-01  1.9710283295E-01
                      -4.1706677931E-01 -1.9710283295E-01  1.9710283295E-01
                       4.1706677931E-01  1.9710283295E-01  1.9710283295E-01
                       1.9710283295E-01  4.1706677931E-01  1.9710283295E-01
                       1.9710283295E-01  1.9710283295E-01  4.1706677931E-01
             xred13    0.0000000000E+00  0.0000000000E+00  0.0000000000E+00
                       2.3690075811E-01 -2.3690075811E-01 -2.3690075811E-01
                      -2.3690075811E-01  2.3690075811E-01 -2.3690075811E-01
                      -2.3690075811E-01 -2.3690075811E-01  2.3690075811E-01
                       2.3690075811E-01  2.3690075811E-01  2.3690075811E-01
                       1.1704327419E-01 -1.1704327419E-01 -1.1704327419E-01
                      -1.1704327419E-01  1.1704327419E-01 -1.1704327419E-01
                      -1.1704327419E-01 -1.1704327419E-01  1.1704327419E-01
                       1.1704327419E-01  1.1704327419E-01  1.1704327419E-01
                       1.9710283295E-01 -1.9710283295E-01 -4.1706677931E-01
                       1.9710283295E-01 -4.1706677931E-01 -1.9710283295E-01
                       4.1706677931E-01 -1.9710283295E-01 -1.9710283295E-01
                      -1.9710283295E-01  1.9710283295E-01 -4.1706677931E-01
                      -1.9710283295E-01  4.1706677931E-01 -1.9710283295E-01
                      -4.1706677931E-01  1.9710283295E-01 -1.9710283295E-01
                      -1.9710283295E-01 -1.9710283295E-01  4.1706677931E-01
                      -1.9710283295E-01 -4.1706677931E-01  1.9710283295E-01
                      -4.1706677931E-01 -1.9710283295E-01  1.9710283295E-01
                       4.1706677931E-01  1.9710283295E-01  1.9710283295E-01
                       1.9710283295E-01  4.1706677931E-01  1.9710283295E-01
                       1.9710283295E-01  1.9710283295E-01  4.1706677931E-01
             xred14    0.0000000000E+00  0.0000000000E+00  0.0000000000E+00
                       2.3690075811E-01 -2.3690075811E-01 -2.3690075811E-01
                      -2.3690075811E-01  2.3690075811E-01 -2.3690075811E-01
                      -2.3690075811E-01 -2.3690075811E-01  2.3690075811E-01
                       2.3690075811E-01  2.3690075811E-01  2.3690075811E-01
                       1.1704327419E-01 -1.1704327419E-01 -1.1704327419E-01
                      -1.1704327419E-01  1.1704327419E-01 -1.1704327419E-01
                      -1.1704327419E-01 -1.1704327419E-01  1.1704327419E-01
                       1.1704327419E-01  1.1704327419E-01  1.1704327419E-01
                       1.9710283295E-01 -1.9710283295E-01 -4.1706677931E-01
                       1.9710283295E-01 -4.1706677931E-01 -1.9710283295E-01
                       4.1706677931E-01 -1.9710283295E-01 -1.9710283295E-01
                      -1.9710283295E-01  1.9710283295E-01 -4.1706677931E-01
                      -1.9710283295E-01  4.1706677931E-01 -1.9710283295E-01
                      -4.1706677931E-01  1.9710283295E-01 -1.9710283295E-01
                      -1.9710283295E-01 -1.9710283295E-01  4.1706677931E-01
                      -1.9710283295E-01 -4.1706677931E-01  1.9710283295E-01
                      -4.1706677931E-01 -1.9710283295E-01  1.9710283295E-01
                       4.1706677931E-01  1.9710283295E-01  1.9710283295E-01
                       1.9710283295E-01  4.1706677931E-01  1.9710283295E-01
                       1.9710283295E-01  1.9710283295E-01  4.1706677931E-01
             xred15    0.0000000000E+00  0.0000000000E+00  0.0000000000E+00
                       2.3690075811E-01 -2.3690075811E-01 -2.3690075811E-01
                      -2.3690075811E-01  2.3690075811E-01 -2.3690075811E-01
                      -2.3690075811E-01 -2.3690075811E-01  2.3690075811E-01
                       2.3690075811E-01  2.3690075811E-01  2.3690075811E-01
                       1.1704327419E-01 -1.1704327419E-01 -1.1704327419E-01
                      -1.1704327419E-01  1.1704327419E-01 -1.1704327419E-01
                      -1.1704327419E-01 -1.1704327419E-01  1.1704327419E-01
                       1.1704327419E-01  1.1704327419E-01  1.1704327419E-01
                       1.9710283295E-01 -1.9710283295E-01 -4.1706677931E-01
                       1.9710283295E-01 -4.1706677931E-01 -1.9710283295E-01
                       4.1706677931E-01 -1.9710283295E-01 -1.9710283295E-01
                      -1.9710283295E-01  1.9710283295E-01 -4.1706677931E-01
                      -1.9710283295E-01  4.1706677931E-01 -1.9710283295E-01
                      -4.1706677931E-01  1.9710283295E-01 -1.9710283295E-01
                      -1.9710283295E-01 -1.9710283295E-01  4.1706677931E-01
                      -1.9710283295E-01 -4.1706677931E-01  1.9710283295E-01
                      -4.1706677931E-01 -1.9710283295E-01  1.9710283295E-01
                       4.1706677931E-01  1.9710283295E-01  1.9710283295E-01
                       1.9710283295E-01  4.1706677931E-01  1.9710283295E-01
                       1.9710283295E-01  1.9710283295E-01  4.1706677931E-01
             xred21    0.0000000000E+00  0.0000000000E+00  0.0000000000E+00
                       1.1845037906E-01 -1.1845037906E-01 -1.1845037906E-01
                      -1.1845037906E-01  1.1845037906E-01 -1.1845037906E-01
                      -1.1845037906E-01 -1.1845037906E-01  1.1845037906E-01
                       1.1845037906E-01  1.1845037906E-01  1.1845037906E-01
                       5.8521637096E-02 -5.8521637096E-02 -5.8521637096E-02
                      -5.8521637096E-02  5.8521637096E-02 -5.8521637096E-02
                      -5.8521637096E-02 -5.8521637096E-02  5.8521637096E-02
                       5.8521637096E-02  5.8521637096E-02  5.8521637096E-02
                       9.8551416473E-02 -9.8551416473E-02 -2.0853338966E-01
                       9.8551416473E-02 -2.0853338966E-01 -9.8551416473E-02
                       2.0853338966E-01 -9.8551416473E-02 -9.8551416473E-02
                      -9.8551416473E-02  9.8551416473E-02 -2.0853338966E-01
                      -9.8551416473E-02  2.0853338966E-01 -9.8551416473E-02
                      -2.0853338966E-01  9.8551416473E-02 -9.8551416473E-02
                      -9.8551416473E-02 -9.8551416473E-02  2.0853338966E-01
                      -9.8551416473E-02 -2.0853338966E-01  9.8551416473E-02
                      -2.0853338966E-01 -9.8551416473E-02  9.8551416473E-02
                       2.0853338966E-01  9.8551416473E-02  9.8551416473E-02
                       9.8551416473E-02  2.0853338966E-01  9.8551416473E-02
                       9.8551416473E-02  9.8551416473E-02  2.0853338966E-01
             xred22    0.0000000000E+00  0.0000000000E+00  0.0000000000E+00
                       1.1845037906E-01 -1.1845037906E-01 -1.1845037906E-01
                      -1.1845037906E-01  1.1845037906E-01 -1.1845037906E-01
                      -1.1845037906E-01 -1.1845037906E-01  1.1845037906E-01
                       1.1845037906E-01  1.1845037906E-01  1.1845037906E-01
                       5.8521637096E-02 -5.8521637096E-02 -5.8521637096E-02
                      -5.8521637096E-02  5.8521637096E-02 -5.8521637096E-02
                      -5.8521637096E-02 -5.8521637096E-02  5.8521637096E-02
                       5.8521637096E-02  5.8521637096E-02  5.8521637096E-02
                       9.8551416473E-02 -9.8551416473E-02 -2.0853338966E-01
                       9.8551416473E-02 -2.0853338966E-01 -9.8551416473E-02
                       2.0853338966E-01 -9.8551416473E-02 -9.8551416473E-02
                      -9.8551416473E-02  9.8551416473E-02 -2.0853338966E-01
                      -9.8551416473E-02  2.0853338966E-01 -9.8551416473E-02
                      -2.0853338966E-01  9.8551416473E-02 -9.8551416473E-02
                      -9.8551416473E-02 -9.8551416473E-02  2.0853338966E-01
                      -9.8551416473E-02 -2.0853338966E-01  9.8551416473E-02
                      -2.0853338966E-01 -9.8551416473E-02  9.8551416473E-02
                       2.0853338966E-01  9.8551416473E-02  9.8551416473E-02
                       9.8551416473E-02  2.0853338966E-01  9.8551416473E-02
                       9.8551416473E-02  9.8551416473E-02  2.0853338966E-01
             xred23    0.0000000000E+00  0.0000000000E+00  0.0000000000E+00
                       1.1845037906E-01 -1.1845037906E-01 -1.1845037906E-01
                      -1.1845037906E-01  1.1845037906E-01 -1.1845037906E-01
                      -1.1845037906E-01 -1.1845037906E-01  1.1845037906E-01
                       1.1845037906E-01  1.1845037906E-01  1.1845037906E-01
                       5.8521637096E-02 -5.8521637096E-02 -5.8521637096E-02
                      -5.8521637096E-02  5.8521637096E-02 -5.8521637096E-02
                      -5.8521637096E-02 -5.8521637096E-02  5.8521637096E-02
                       5.8521637096E-02  5.8521637096E-02  5.8521637096E-02
                       9.8551416473E-02 -9.8551416473E-02 -2.0853338966E-01
                       9.8551416473E-02 -2.0853338966E-01 -9.8551416473E-02
                       2.0853338966E-01 -9.8551416473E-02 -9.8551416473E-02
                      -9.8551416473E-02  9.8551416473E-02 -2.0853338966E-01
                      -9.8551416473E-02  2.0853338966E-01 -9.8551416473E-02
                      -2.0853338966E-01  9.8551416473E-02 -9.8551416473E-02
                      -9.8551416473E-02 -9.8551416473E-02  2.0853338966E-01
                      -9.8551416473E-02 -2.0853338966E-01  9.8551416473E-02
                      -2.0853338966E-01 -9.8551416473E-02  9.8551416473E-02
                       2.0853338966E-01  9.8551416473E-02  9.8551416473E-02
                       9.8551416473E-02  2.0853338966E-01  9.8551416473E-02
                       9.8551416473E-02  9.8551416473E-02  2.0853338966E-01
             xred24    0.0000000000E+00  0.0000000000E+00  0.0000000000E+00
                       1.1845037906E-01 -1.1845037906E-01 -1.1845037906E-01
                      -1.1845037906E-01  1.1845037906E-01 -1.1845037906E-01
                      -1.1845037906E-01 -1.1845037906E-01  1.1845037906E-01
                       1.1845037906E-01  1.1845037906E-01  1.1845037906E-01
                       5.8521637096E-02 -5.8521637096E-02 -5.8521637096E-02
                      -5.8521637096E-02  5.8521637096E-02 -5.8521637096E-02
                      -5.8521637096E-02 -5.8521637096E-02  5.8521637096E-02
                       5.8521637096E-02  5.8521637096E-02  5.8521637096E-02
                       9.8551416473E-02 -9.8551416473E-02 -2.0853338966E-01
                       9.8551416473E-02 -2.0853338966E-01 -9.8551416473E-02
                       2.0853338966E-01 -9.8551416473E-02 -9.8551416473E-02
                      -9.8551416473E-02  9.8551416473E-02 -2.0853338966E-01
                      -9.8551416473E-02  2.0853338966E-01 -9.8551416473E-02
                      -2.0853338966E-01  9.8551416473E-02 -9.8551416473E-02
                      -9.8551416473E-02 -9.8551416473E-02  2.0853338966E-01
                      -9.8551416473E-02 -2.0853338966E-01  9.8551416473E-02
                      -2.0853338966E-01 -9.8551416473E-02  9.8551416473E-02
                       2.0853338966E-01  9.8551416473E-02  9.8551416473E-02
                       9.8551416473E-02  2.0853338966E-01  9.8551416473E-02
                       9.8551416473E-02  9.8551416473E-02  2.0853338966E-01
             xred25    0.0000000000E+00  0.0000000000E+00  0.0000000000E+00
                       1.1845037906E-01 -1.1845037906E-01 -1.1845037906E-01
                      -1.1845037906E-01  1.1845037906E-01 -1.1845037906E-01
                      -1.1845037906E-01 -1.1845037906E-01  1.1845037906E-01
                       1.1845037906E-01  1.1845037906E-01  1.1845037906E-01
                       5.8521637096E-02 -5.8521637096E-02 -5.8521637096E-02
                      -5.8521637096E-02  5.8521637096E-02 -5.8521637096E-02
                      -5.8521637096E-02 -5.8521637096E-02  5.8521637096E-02
                       5.8521637096E-02  5.8521637096E-02  5.8521637096E-02
                       9.8551416473E-02 -9.8551416473E-02 -2.0853338966E-01
                       9.8551416473E-02 -2.0853338966E-01 -9.8551416473E-02
                       2.0853338966E-01 -9.8551416473E-02 -9.8551416473E-02
                      -9.8551416473E-02  9.8551416473E-02 -2.0853338966E-01
                      -9.8551416473E-02  2.0853338966E-01 -9.8551416473E-02
                      -2.0853338966E-01  9.8551416473E-02 -9.8551416473E-02
                      -9.8551416473E-02 -9.8551416473E-02  2.0853338966E-01
                      -9.8551416473E-02 -2.0853338966E-01  9.8551416473E-02
                      -2.0853338966E-01 -9.8551416473E-02  9.8551416473E-02
                       2.0853338966E-01  9.8551416473E-02  9.8551416473E-02
                       9.8551416473E-02  2.0853338966E-01  9.8551416473E-02
                       9.8551416473E-02  9.8551416473E-02  2.0853338966E-01
            znucl        1.00000    8.00000   14.00000

================================================================================


- Timing analysis has been suppressed with timopt=0



================================================================================

 Suggested references for the acknowledgment of ABINIT usage.

 The users of ABINIT have little formal obligations with respect to the ABINIT group
 (those specified in the GNU General Public License, http://www.gnu.org/copyleft/gpl.txt).
 However, it is common practice in the scientific literature,
 to acknowledge the efforts of people that have made the research possible.
 In this spirit, please find below suggested citations of work written by ABINIT developers,
 corresponding to implementations inside of ABINIT that you have used in the present run.
 Note also that it will be of great value to readers of publications presenting these results,
 to read papers enabling them to understand the theoretical formalism and details
 of the ABINIT implementation.
 For information on why they are suggested, see also https://docs.abinit.org/theory/acknowledgments.
-
- [1] Libxc: A library of exchange and correlation functionals for density functional theory.
- M.A.L. Marques, M.J.T. Oliveira, T. Burnus, Computer Physics Communications 183, 2227 (2012).
- Comment: to be cited when LibXC is used (negative value of ixc)
- Strong suggestion to cite this paper.
- DOI and bibtex: see https://docs.abinit.org/theory/bibliography/#marques2012
-
- [2] The Abinit project: Impact, environment and recent developments.
- Computer Phys. Comm. 248, 107042 (2020).
- X.Gonze, B. Amadon, G. Antonius, F.Arnardi, L.Baguet, J.-M.Beuken,
- J.Bieder, F.Bottin, J.Bouchet, E.Bousquet, N.Brouwer, F.Bruneval,
- G.Brunin, T.Cavignac, J.-B. Charraud, Wei Chen, M.Cote, S.Cottenier,
- J.Denier, G.Geneste, Ph.Ghosez, M.Giantomassi, Y.Gillet, O.Gingras,
- D.R.Hamann, G.Hautier, Xu He, N.Helbig, N.Holzwarth, Y.Jia, F.Jollet,
- W.Lafargue-Dit-Hauret, K.Lejaeghere, M.A.L.Marques, A.Martin, C.Martins,
- H.P.C. Miranda, F.Naccarato, K. Persson, G.Petretto, V.Planes, Y.Pouillon,
- S.Prokhorenko, F.Ricci, G.-M.Rignanese, A.H.Romero, M.M.Schmitt, M.Torrent,
- M.J.van Setten, B.Van Troeye, M.J.Verstraete, G.Zerah and J.W.Zwanzig
- Comment: the fifth generic paper describing the ABINIT project.
- Note that a version of this paper, that is not formatted for Computer Phys. Comm. 
- is available at https://www.abinit.org/sites/default/files/ABINIT20.pdf .
- The licence allows the authors to put it on the Web.
- DOI and bibtex: see https://docs.abinit.org/theory/bibliography/#gonze2020
-
- [3] Optimized norm-conserving Vanderbilt pseudopotentials.
- D.R. Hamann, Phys. Rev. B 88, 085117 (2013).
- Comment: Some pseudopotential generated using the ONCVPSP code were used.
- DOI and bibtex: see https://docs.abinit.org/theory/bibliography/#hamann2013
-
- [4] ABINIT: Overview, and focus on selected capabilities
- J. Chem. Phys. 152, 124102 (2020).
- A. Romero, D.C. Allan, B. Amadon, G. Antonius, T. Applencourt, L.Baguet,
- J.Bieder, F.Bottin, J.Bouchet, E.Bousquet, F.Bruneval,
- G.Brunin, D.Caliste, M.Cote,
- J.Denier, C. Dreyer, Ph.Ghosez, M.Giantomassi, Y.Gillet, O.Gingras,
- D.R.Hamann, G.Hautier, F.Jollet, G. Jomard,
- A.Martin, 
- H.P.C. Miranda, F.Naccarato, G.Petretto, N.A. Pike, V.Planes,
- S.Prokhorenko, T. Rangel, F.Ricci, G.-M.Rignanese, M.Royo, M.Stengel, M.Torrent,
- M.J.van Setten, B.Van Troeye, M.J.Verstraete, J.Wiktor, J.W.Zwanziger, and X.Gonze.
- Comment: a global overview of ABINIT, with focus on selected capabilities .
- Note that a version of this paper, that is not formatted for J. Chem. Phys 
- is available at https://www.abinit.org/sites/default/files/ABINIT20_JPC.pdf .
- The licence allows the authors to put it on the Web.
- DOI and bibtex: see https://docs.abinit.org/theory/bibliography/#romero2020
-
- [5] Recent developments in the ABINIT software package.
- Computer Phys. Comm. 205, 106 (2016).
- X.Gonze, F.Jollet, F.Abreu Araujo, D.Adams, B.Amadon, T.Applencourt,
- C.Audouze, J.-M.Beuken, J.Bieder, A.Bokhanchuk, E.Bousquet, F.Bruneval
- D.Caliste, M.Cote, F.Dahm, F.Da Pieve, M.Delaveau, M.Di Gennaro,
- B.Dorado, C.Espejo, G.Geneste, L.Genovese, A.Gerossier, M.Giantomassi,
- Y.Gillet, D.R.Hamann, L.He, G.Jomard, J.Laflamme Janssen, S.Le Roux,
- A.Levitt, A.Lherbier, F.Liu, I.Lukacevic, A.Martin, C.Martins,
- M.J.T.Oliveira, S.Ponce, Y.Pouillon, T.Rangel, G.-M.Rignanese,
- A.H.Romero, B.Rousseau, O.Rubel, A.A.Shukri, M.Stankovski, M.Torrent,
- M.J.Van Setten, B.Van Troeye, M.J.Verstraete, D.Waroquier, J.Wiktor,
- B.Xu, A.Zhou, J.W.Zwanziger.
- Comment: the fourth generic paper describing the ABINIT project.
- Note that a version of this paper, that is not formatted for Computer Phys. Comm. 
- is available at https://www.abinit.org/sites/default/files/ABINIT16.pdf .
- The licence allows the authors to put it on the Web.
- DOI and bibtex: see https://docs.abinit.org/theory/bibliography/#gonze2016
-
- Proc.   0 individual time (sec): cpu=      27572.4  wall=      11154.6

================================================================================

 Calculation completed.
.Delivered  19 WARNINGs and  17 COMMENTs to log file.
+Overall time at end (sec) : cpu=      27572.4  wall=      11154.6
