 DIM-GROUP
 3  1
 PRIMVEC
 1.0583544172E+01   0.0000000000E+00   0.0000000000E+00
 0.0000000000E+00   1.0583544172E+01   0.0000000000E+00
 0.0000000000E+00   0.0000000000E+00   1.0583544172E+01
 PRIMCOORD
           9  1
       14    0.0000000000E+00    0.0000000000E+00    0.0000000000E+00
        8   -1.5875316258E+00   -5.2917720859E-01    0.0000000000E+00
        8    1.5875316258E+00   -5.2917720859E-01    0.0000000000E+00
        1   -2.1167088344E+00    0.0000000000E+00   -5.2917720859E-01
        1   -2.1167088344E+00    0.0000000000E+00    5.2917720859E-01
        1   -2.1167088344E+00   -1.0583544172E+00    0.0000000000E+00
        1    2.1167088344E+00    0.0000000000E+00   -5.2917720859E-01
        1    2.1167088344E+00    0.0000000000E+00    5.2917720859E-01
        1    2.1167088344E+00   -1.0583544172E+00    0.0000000000E+00
 ATOMS
       14    0.0000000000E+00    0.0000000000E+00    0.0000000000E+00
        8   -1.5875316258E+00   -5.2917720859E-01    0.0000000000E+00
        8    1.5875316258E+00   -5.2917720859E-01    0.0000000000E+00
        1   -2.1167088344E+00    0.0000000000E+00   -5.2917720859E-01
        1   -2.1167088344E+00    0.0000000000E+00    5.2917720859E-01
        1   -2.1167088344E+00   -1.0583544172E+00    0.0000000000E+00
        1    2.1167088344E+00    0.0000000000E+00   -5.2917720859E-01
        1    2.1167088344E+00    0.0000000000E+00    5.2917720859E-01
        1    2.1167088344E+00   -1.0583544172E+00    0.0000000000E+00
 BEGIN_BLOCK_DATAGRID3D
 datagrids
 DATAGRID_3D_DENSITY
          28          28          28
 0.0 0.0 0.0 
 1.0583544172E+01   0.0000000000E+00   0.0000000000E+00
 0.0000000000E+00   1.0583544172E+01   0.0000000000E+00
 0.0000000000E+00   0.0000000000E+00   1.0583544172E+01
         0.22719E-01           0.49473E-01           0.11776E+00           0.17256E+00           0.18984E+00           0.19202E+00  
         0.15177E+00           0.73242E-01           0.19623E-01           0.35925E-02           0.65567E-03           0.29219E-03  
         0.19606E-03           0.69227E-04           0.69227E-04           0.19606E-03           0.29219E-03           0.65567E-03  
         0.35925E-02           0.19623E-01           0.73242E-01           0.15177E+00           0.19202E+00           0.18984E+00  
         0.17256E+00           0.11776E+00           0.49473E-01           0.22719E-01           0.44607E-01           0.52477E-01  
         0.76822E-01           0.10166E+00           0.11826E+00           0.12525E+00           0.96755E-01           0.44430E-01  
         0.11627E-01           0.22871E-02           0.49988E-03           0.31791E-03           0.19807E-03           0.68122E-04  
         0.68122E-04           0.19807E-03           0.31791E-03           0.49988E-03           0.22871E-02           0.11627E-01  
         0.44430E-01           0.96755E-01           0.12525E+00           0.11826E+00           0.10166E+00           0.76822E-01  
         0.52477E-01           0.44607E-01           0.58883E-01           0.55126E-01           0.47800E-01           0.41284E-01  
         0.40643E-01           0.42196E-01           0.31409E-01           0.13769E-01           0.39498E-02           0.10628E-02  
         0.41132E-03           0.36329E-03           0.19826E-03           0.74840E-04           0.74840E-04           0.19826E-03  
         0.36329E-03           0.41132E-03           0.10628E-02           0.39498E-02           0.13769E-01           0.31409E-01  
         0.42196E-01           0.40643E-01           0.41284E-01           0.47800E-01           0.55126E-01           0.58883E-01  
         0.39184E-01           0.35505E-01           0.25925E-01           0.14862E-01           0.81348E-02           0.59845E-02  
         0.40600E-02           0.20406E-02           0.96512E-03           0.48747E-03           0.41561E-03           0.29176E-03  
         0.13698E-03           0.74129E-04           0.74129E-04           0.13698E-03           0.29176E-03           0.41561E-03  
         0.48747E-03           0.96512E-03           0.20406E-02           0.40600E-02           0.59845E-02           0.81348E-02  
         0.14862E-01           0.25925E-01           0.35505E-01           0.39184E-01           0.15561E-01           0.13963E-01  
         0.99029E-02           0.53340E-02           0.22038E-02           0.84253E-03           0.43340E-03           0.34888E-03  
         0.34174E-03           0.40273E-03           0.32177E-03           0.12267E-03           0.81234E-04           0.51447E-04  
         0.51447E-04           0.81234E-04           0.12267E-03           0.32177E-03           0.40273E-03           0.34174E-03  
         0.34888E-03           0.43340E-03           0.84253E-03           0.22038E-02           0.53340E-02           0.99029E-02  
         0.13963E-01           0.15561E-01           0.50080E-02           0.43582E-02           0.29452E-02           0.15770E-02  
         0.68022E-03           0.32005E-03           0.21908E-03           0.24315E-03           0.34838E-03           0.31587E-03  
         0.14955E-03           0.63166E-04           0.55743E-04           0.27413E-04           0.27413E-04           0.55743E-04  
         0.63166E-04           0.14955E-03           0.31587E-03           0.34838E-03           0.24315E-03           0.21908E-03  
         0.32005E-03           0.68022E-03           0.15770E-02           0.29452E-02           0.43582E-02           0.50080E-02  
         0.19339E-02           0.16792E-02           0.11594E-02           0.68615E-03           0.40822E-03           0.30314E-03  
         0.23922E-03           0.23116E-03           0.19710E-03           0.10825E-03           0.80019E-04           0.53061E-04  
         0.21994E-04           0.42802E-04           0.42802E-04           0.21994E-04           0.53061E-04           0.80019E-04  
         0.10825E-03           0.19710E-03           0.23116E-03           0.23922E-03           0.30314E-03           0.40822E-03  
         0.68615E-03           0.11594E-02           0.16792E-02           0.19339E-02           0.95868E-03           0.81109E-03  
         0.52805E-03           0.33101E-03           0.25062E-03           0.17969E-03           0.10578E-03           0.73989E-04  
         0.46446E-04           0.57031E-04           0.55685E-04           0.24866E-04           0.49129E-04           0.56278E-04  
         0.56278E-04           0.49129E-04           0.24866E-04           0.55685E-04           0.57031E-04           0.46446E-04  
         0.73989E-04           0.10578E-03           0.17969E-03           0.25062E-03           0.33101E-03           0.52805E-03  
         0.81109E-03           0.95868E-03           0.28822E-03           0.26466E-03           0.21870E-03           0.18491E-03  
         0.16113E-03           0.12080E-03           0.86417E-04           0.70772E-04           0.54942E-04           0.53560E-04  
         0.33195E-04           0.31414E-04           0.63893E-04           0.38540E-04           0.38540E-04           0.63893E-04  
         0.31414E-04           0.33195E-04           0.53560E-04           0.54942E-04           0.70772E-04           0.86417E-04  
         0.12080E-03           0.16113E-03           0.18491E-03           0.21870E-03           0.26466E-03           0.28822E-03  
         0.52030E-04           0.50067E-04           0.45236E-04           0.45873E-04           0.49827E-04           0.32300E-04  
         0.16696E-04           0.31994E-04           0.31013E-04           0.20616E-04           0.34444E-04           0.30326E-04  
         0.19032E-04           0.34972E-04           0.34972E-04           0.19032E-04           0.30326E-04           0.34444E-04  
         0.20616E-04           0.31013E-04           0.31994E-04           0.16696E-04           0.32300E-04           0.49827E-04  
         0.45873E-04           0.45236E-04           0.50067E-04           0.52030E-04           0.52268E-04           0.48000E-04  
         0.43470E-04           0.52180E-04           0.62644E-04           0.50304E-04           0.41042E-04           0.55554E-04  
         0.53622E-04           0.35116E-04           0.26298E-04           0.20896E-04           0.22615E-04           0.31070E-04  
         0.31070E-04           0.22615E-04           0.20896E-04           0.26298E-04           0.35116E-04           0.53622E-04  
         0.55554E-04           0.41042E-04           0.50304E-04           0.62644E-04           0.52180E-04           0.43470E-04  
         0.48000E-04           0.52268E-04           0.36338E-04           0.36240E-04           0.32872E-04           0.30149E-04  
         0.30859E-04           0.27513E-04           0.32215E-04           0.39143E-04           0.34319E-04           0.34947E-04  
         0.28665E-04           0.28220E-04           0.41150E-04           0.28570E-04           0.28570E-04           0.41150E-04  
         0.28220E-04           0.28665E-04           0.34947E-04           0.34319E-04           0.39143E-04           0.32215E-04  
         0.27513E-04           0.30859E-04           0.30149E-04           0.32872E-04           0.36240E-04           0.36338E-04  
         0.43779E-04           0.40851E-04           0.36195E-04           0.43948E-04           0.56519E-04           0.45763E-04  
         0.43659E-04           0.61633E-04           0.41190E-04           0.16548E-04           0.27463E-04           0.25252E-04  
         0.18829E-04           0.32451E-04           0.32451E-04           0.18829E-04           0.25252E-04           0.27463E-04  
         0.16548E-04           0.41190E-04           0.61633E-04           0.43659E-04           0.45763E-04           0.56519E-04  
         0.43948E-04           0.36195E-04           0.40851E-04           0.43779E-04           0.15423E-04           0.15807E-04  
         0.15534E-04           0.19154E-04           0.26846E-04           0.23267E-04           0.24681E-04           0.42760E-04  
         0.35992E-04           0.16000E-04           0.21563E-04           0.25808E-04           0.19602E-04           0.21973E-04  
         0.21973E-04           0.19602E-04           0.25808E-04           0.21563E-04           0.16000E-04           0.35992E-04  
         0.42760E-04           0.24681E-04           0.23267E-04           0.26846E-04           0.19154E-04           0.15534E-04  
         0.15807E-04           0.15423E-04           0.39740E-04           0.37495E-04           0.36294E-04           0.42545E-04  
         0.46438E-04           0.43292E-04           0.49252E-04           0.53607E-04           0.47375E-04           0.45600E-04  
         0.33786E-04           0.28067E-04           0.39592E-04           0.33257E-04           0.33257E-04           0.39592E-04  
         0.28067E-04           0.33786E-04           0.45600E-04           0.47375E-04           0.53607E-04           0.49252E-04  
         0.43292E-04           0.46438E-04           0.42545E-04           0.36294E-04           0.37495E-04           0.39740E-04  
         0.61277E-04           0.53223E-04           0.39461E-04           0.46200E-04           0.61279E-04           0.39599E-04  
         0.22342E-04           0.41980E-04           0.39804E-04           0.30562E-04           0.33703E-04           0.19712E-04  
         0.19341E-04           0.39293E-04           0.39293E-04           0.19341E-04           0.19712E-04           0.33703E-04  
         0.30562E-04           0.39804E-04           0.41980E-04           0.22342E-04           0.39599E-04           0.61279E-04  
         0.46200E-04           0.39461E-04           0.53223E-04           0.61277E-04           0.44796E-04           0.51716E-04  
         0.61345E-04           0.63594E-04           0.75714E-04           0.74124E-04           0.45562E-04           0.38443E-04  
         0.33305E-04           0.19039E-04           0.23551E-04           0.27171E-04           0.26326E-04           0.29097E-04  
         0.29097E-04           0.26326E-04           0.27171E-04           0.23551E-04           0.19039E-04           0.33305E-04  
         0.38443E-04           0.45562E-04           0.74124E-04           0.75714E-04           0.63594E-04           0.61345E-04  
         0.51716E-04           0.44796E-04           0.15123E-03           0.10572E-03           0.57805E-04           0.69633E-04  
         0.86282E-04           0.88901E-04           0.87080E-04           0.67745E-04           0.52883E-04           0.63399E-04  
         0.40696E-04           0.26744E-04           0.56496E-04           0.44849E-04           0.44849E-04           0.56496E-04  
         0.26744E-04           0.40696E-04           0.63399E-04           0.52883E-04           0.67745E-04           0.87080E-04  
         0.88901E-04           0.86282E-04           0.69633E-04           0.57805E-04           0.10572E-03           0.15123E-03  
         0.36565E-03           0.30344E-03           0.19181E-03           0.14560E-03           0.15855E-03           0.14531E-03  
         0.13309E-03           0.12578E-03           0.73327E-04           0.67034E-04           0.69081E-04           0.29410E-04  
         0.35849E-04           0.44832E-04           0.44832E-04           0.35849E-04           0.29410E-04           0.69081E-04  
         0.67034E-04           0.73327E-04           0.12578E-03           0.13309E-03           0.14531E-03           0.15855E-03  
         0.14560E-03           0.19181E-03           0.30344E-03           0.36565E-03           0.79306E-03           0.75954E-03  
         0.61507E-03           0.36158E-03           0.20510E-03           0.18755E-03           0.18612E-03           0.22955E-03  
         0.22257E-03           0.13248E-03           0.76493E-04           0.50227E-04           0.38070E-04           0.28523E-04  
         0.28523E-04           0.38070E-04           0.50227E-04           0.76493E-04           0.13248E-03           0.22257E-03  
         0.22955E-03           0.18612E-03           0.18755E-03           0.20510E-03           0.36158E-03           0.61507E-03  
         0.75954E-03           0.79306E-03           0.11756E-02           0.11035E-02           0.10283E-02           0.86729E-03  
         0.57873E-03           0.39894E-03           0.27833E-03           0.22004E-03           0.25929E-03           0.25234E-03  
         0.13995E-03           0.55804E-04           0.60303E-04           0.35132E-04           0.35132E-04           0.60303E-04  
         0.55804E-04           0.13995E-03           0.25234E-03           0.25929E-03           0.22004E-03           0.27833E-03  
         0.39894E-03           0.57873E-03           0.86729E-03           0.10283E-02           0.11035E-02           0.11756E-02  
         0.19013E-02           0.21155E-02           0.23225E-02           0.22727E-02           0.24916E-02           0.25084E-02  
         0.16778E-02           0.82238E-03           0.41821E-03           0.29900E-03           0.24703E-03           0.11605E-03  
         0.73107E-04           0.51567E-04           0.51567E-04           0.73107E-04           0.11605E-03           0.24703E-03  
         0.29900E-03           0.41821E-03           0.82238E-03           0.16778E-02           0.25084E-02           0.24916E-02  
         0.22727E-02           0.23225E-02           0.21155E-02           0.19013E-02           0.74804E-02           0.72458E-02  
         0.72896E-02           0.11058E-01           0.19458E-01           0.22763E-01           0.14921E-01           0.54243E-02  
         0.13832E-02           0.42274E-03           0.26358E-03           0.19717E-03           0.99949E-04           0.61688E-04  
         0.61688E-04           0.99949E-04           0.19717E-03           0.26358E-03           0.42274E-03           0.13832E-02  
         0.54243E-02           0.14921E-01           0.22763E-01           0.19458E-01           0.11058E-01           0.72896E-02  
         0.72458E-02           0.74804E-02           0.27322E-01           0.25891E-01           0.30259E-01           0.51748E-01  
         0.83223E-01           0.92913E-01           0.62758E-01           0.23443E-01           0.48134E-02           0.84108E-03  
         0.25480E-03           0.21714E-03           0.11498E-03           0.60686E-04           0.60686E-04           0.11498E-03  
         0.21714E-03           0.25480E-03           0.84108E-03           0.48134E-02           0.23443E-01           0.62758E-01  
         0.92913E-01           0.83223E-01           0.51748E-01           0.30259E-01           0.25891E-01           0.27322E-01  
         0.60204E-01           0.62805E-01           0.83988E-01           0.12701E+00           0.17088E+00           0.17980E+00  
         0.12618E+00           0.51040E-01           0.10956E-01           0.16848E-02           0.35719E-03           0.25002E-03  
         0.15123E-03           0.61268E-04           0.61268E-04           0.15123E-03           0.25002E-03           0.35719E-03  
         0.16848E-02           0.10956E-01           0.51040E-01           0.12618E+00           0.17980E+00           0.17088E+00  
         0.12701E+00           0.83988E-01           0.62805E-01           0.60204E-01           0.71773E-01           0.88564E-01  
         0.13955E+00           0.19006E+00           0.21256E+00           0.20985E+00           0.15551E+00           0.69421E-01  
         0.16838E-01           0.29023E-02           0.55184E-03           0.27551E-03           0.19645E-03           0.70245E-04  
         0.70245E-04           0.19645E-03           0.27551E-03           0.55184E-03           0.29023E-02           0.16838E-01  
         0.69421E-01           0.15551E+00           0.20985E+00           0.21256E+00           0.19006E+00           0.13955E+00  
         0.88564E-01           0.71773E-01           0.42310E-01           0.73279E-01           0.15083E+00           0.20693E+00  
         0.21331E+00           0.20606E+00           0.16140E+00           0.77980E-01           0.20808E-01           0.38534E-02  
         0.69393E-03           0.27768E-03           0.20559E-03           0.74258E-04           0.74258E-04           0.20559E-03  
         0.27768E-03           0.69393E-03           0.38534E-02           0.20808E-01           0.77980E-01           0.16140E+00  
         0.20606E+00           0.21331E+00           0.20693E+00           0.15083E+00           0.73279E-01           0.42310E-01  
         0.22719E-01           0.49473E-01           0.11776E+00           0.17256E+00           0.18984E+00           0.19202E+00  
         0.15177E+00           0.73242E-01           0.19623E-01           0.35925E-02           0.65567E-03           0.29219E-03  
         0.19606E-03           0.69227E-04           0.69227E-04           0.19606E-03           0.29219E-03           0.65567E-03  
         0.35925E-02           0.19623E-01           0.73242E-01           0.15177E+00           0.19202E+00           0.18984E+00  
         0.17256E+00           0.11776E+00           0.49473E-01           0.22719E-01           0.44801E-01           0.60945E-01  
         0.10736E+00           0.15234E+00           0.17664E+00           0.18375E+00           0.14294E+00           0.67226E-01  
         0.17629E-01           0.31587E-02           0.58816E-03           0.29776E-03           0.18603E-03           0.64105E-04  
         0.64105E-04           0.18603E-03           0.29776E-03           0.58816E-03           0.31587E-02           0.17629E-01  
         0.67226E-01           0.14294E+00           0.18375E+00           0.17664E+00           0.15234E+00           0.10736E+00  
         0.60945E-01           0.44801E-01           0.56427E-01           0.58889E-01           0.71076E-01           0.88118E-01  
         0.10523E+00           0.11409E+00           0.87841E-01           0.39948E-01           0.10431E-01           0.20507E-02  
         0.46940E-03           0.31594E-03           0.18433E-03           0.62517E-04           0.62517E-04           0.18433E-03  
         0.31594E-03           0.46940E-03           0.20507E-02           0.10431E-01           0.39948E-01           0.87841E-01  
         0.11409E+00           0.10523E+00           0.88118E-01           0.71076E-01           0.58889E-01           0.56427E-01  
         0.58073E-01           0.53351E-01           0.43581E-01           0.35223E-01           0.34356E-01           0.36462E-01  
         0.27449E-01           0.12165E-01           0.35666E-02           0.97191E-03           0.39744E-03           0.34131E-03  
         0.17595E-03           0.65355E-04           0.65355E-04           0.17595E-03           0.34131E-03           0.39744E-03  
         0.97191E-03           0.35666E-02           0.12165E-01           0.27449E-01           0.36462E-01           0.34356E-01  
         0.35223E-01           0.43581E-01           0.53351E-01           0.58073E-01           0.35201E-01           0.31794E-01  
         0.22929E-01           0.12747E-01           0.66392E-02           0.48684E-02           0.34423E-02           0.18293E-02  
         0.89147E-03           0.45717E-03           0.38336E-03           0.25381E-03           0.11426E-03           0.59298E-04  
         0.59298E-04           0.11426E-03           0.25381E-03           0.38336E-03           0.45717E-03           0.89147E-03  
         0.18293E-02           0.34423E-02           0.48684E-02           0.66392E-02           0.12747E-01           0.22929E-01  
         0.31794E-01           0.35201E-01           0.13499E-01           0.12095E-01           0.85542E-02           0.45822E-02  
         0.18585E-02           0.70191E-03           0.39033E-03           0.33560E-03           0.33083E-03           0.36987E-03  
         0.27567E-03           0.99435E-04           0.69776E-04           0.39005E-04           0.39005E-04           0.69776E-04  
         0.99435E-04           0.27567E-03           0.36987E-03           0.33083E-03           0.33560E-03           0.39033E-03  
         0.70191E-03           0.18585E-02           0.45822E-02           0.85542E-02           0.12095E-01           0.13499E-01  
         0.43621E-02           0.38050E-02           0.25853E-02           0.13927E-02           0.61407E-03           0.31036E-03  
         0.22925E-03           0.25339E-03           0.33166E-03           0.27680E-03           0.12467E-03           0.58380E-04  
         0.54358E-04           0.27750E-04           0.27750E-04           0.54358E-04           0.58380E-04           0.12467E-03  
         0.27680E-03           0.33166E-03           0.25339E-03           0.22925E-03           0.31036E-03           0.61407E-03  
         0.13927E-02           0.25853E-02           0.38050E-02           0.43621E-02           0.17404E-02           0.15189E-02  
         0.10617E-02           0.64251E-03           0.39742E-03           0.29953E-03           0.23891E-03           0.22782E-03  
         0.18198E-03           0.94290E-04           0.73230E-04           0.51572E-04           0.24909E-04           0.42988E-04  
         0.42988E-04           0.24909E-04           0.51572E-04           0.73230E-04           0.94290E-04           0.18198E-03  
         0.22782E-03           0.23891E-03           0.29953E-03           0.39742E-03           0.64251E-03           0.10617E-02  
         0.15189E-02           0.17404E-02           0.86661E-03           0.73672E-03           0.48933E-03           0.31582E-03  
         0.23668E-03           0.16443E-03           0.98693E-04           0.71955E-04           0.43374E-04           0.49043E-04  
         0.47499E-04           0.25643E-04           0.49051E-04           0.45259E-04           0.45259E-04           0.49051E-04  
         0.25643E-04           0.47499E-04           0.49043E-04           0.43374E-04           0.71955E-04           0.98693E-04  
         0.16443E-03           0.23668E-03           0.31582E-03           0.48933E-03           0.73672E-03           0.86661E-03  
         0.24856E-03           0.23382E-03           0.20442E-03           0.17713E-03           0.15148E-03           0.11380E-03  
         0.80632E-04           0.63116E-04           0.47618E-04           0.44335E-04           0.28634E-04           0.34331E-04  
         0.63297E-04           0.34409E-04           0.34409E-04           0.63297E-04           0.34331E-04           0.28634E-04  
         0.44335E-04           0.47618E-04           0.63116E-04           0.80632E-04           0.11380E-03           0.15148E-03  
         0.17713E-03           0.20442E-03           0.23382E-03           0.24856E-03           0.45914E-04           0.46507E-04  
         0.44703E-04           0.43895E-04           0.48319E-04           0.35377E-04           0.18333E-04           0.28277E-04  
         0.27020E-04           0.19097E-04           0.36431E-04           0.36448E-04           0.25713E-04           0.39643E-04  
         0.39643E-04           0.25713E-04           0.36448E-04           0.36431E-04           0.19097E-04           0.27020E-04  
         0.28277E-04           0.18333E-04           0.35377E-04           0.48319E-04           0.43895E-04           0.44703E-04  
         0.46507E-04           0.45914E-04           0.47979E-04           0.46492E-04           0.45221E-04           0.53092E-04  
         0.63405E-04           0.53741E-04           0.44921E-04           0.54569E-04           0.47786E-04           0.31288E-04  
         0.27649E-04           0.27083E-04           0.29824E-04           0.32721E-04           0.32721E-04           0.29824E-04  
         0.27083E-04           0.27649E-04           0.31288E-04           0.47786E-04           0.54569E-04           0.44921E-04  
         0.53741E-04           0.63405E-04           0.53092E-04           0.45221E-04           0.46492E-04           0.47979E-04  
         0.37197E-04           0.38108E-04           0.35280E-04           0.30983E-04           0.31154E-04           0.28808E-04  
         0.33436E-04           0.37852E-04           0.30179E-04           0.31762E-04           0.27443E-04           0.27821E-04  
         0.41842E-04           0.28679E-04           0.28679E-04           0.41842E-04           0.27821E-04           0.27443E-04  
         0.31762E-04           0.30179E-04           0.37852E-04           0.33436E-04           0.28808E-04           0.31154E-04  
         0.30983E-04           0.35280E-04           0.38108E-04           0.37197E-04           0.44500E-04           0.41886E-04  
         0.36594E-04           0.42292E-04           0.55453E-04           0.46953E-04           0.42526E-04           0.56739E-04  
         0.38003E-04           0.16680E-04           0.25920E-04           0.21157E-04           0.16681E-04           0.33170E-04  
         0.33170E-04           0.16681E-04           0.21157E-04           0.25920E-04           0.16680E-04           0.38003E-04  
         0.56739E-04           0.42526E-04           0.46953E-04           0.55453E-04           0.42292E-04           0.36594E-04  
         0.41886E-04           0.44500E-04           0.17241E-04           0.17905E-04           0.17144E-04           0.19475E-04  
         0.28290E-04           0.25922E-04           0.23363E-04           0.37169E-04           0.32354E-04           0.15402E-04  
         0.18679E-04           0.20485E-04           0.17290E-04           0.23670E-04           0.23670E-04           0.17290E-04  
         0.20485E-04           0.18679E-04           0.15402E-04           0.32354E-04           0.37169E-04           0.23363E-04  
         0.25922E-04           0.28290E-04           0.19475E-04           0.17144E-04           0.17905E-04           0.17241E-04  
         0.33098E-04           0.34165E-04           0.37972E-04           0.44455E-04           0.45908E-04           0.42190E-04  
         0.48189E-04           0.49786E-04           0.39813E-04           0.37668E-04           0.28076E-04           0.26045E-04  
         0.39710E-04           0.31005E-04           0.31005E-04           0.39710E-04           0.26045E-04           0.28076E-04  
         0.37668E-04           0.39813E-04           0.49786E-04           0.48189E-04           0.42190E-04           0.45908E-04  
         0.44455E-04           0.37972E-04           0.34165E-04           0.33098E-04           0.52388E-04           0.48383E-04  
         0.41307E-04           0.47960E-04           0.57972E-04           0.37193E-04           0.25467E-04           0.43376E-04  
         0.34821E-04           0.25119E-04           0.32556E-04           0.24424E-04           0.24633E-04           0.36802E-04  
         0.36802E-04           0.24633E-04           0.24424E-04           0.32556E-04           0.25119E-04           0.34821E-04  
         0.43376E-04           0.25467E-04           0.37193E-04           0.57972E-04           0.47960E-04           0.41307E-04  
         0.48383E-04           0.52388E-04           0.38229E-04           0.47613E-04           0.60194E-04           0.60852E-04  
         0.71155E-04           0.71735E-04           0.44468E-04           0.35832E-04           0.30580E-04           0.18747E-04  
         0.27460E-04           0.34462E-04           0.31789E-04           0.29961E-04           0.29961E-04           0.31789E-04  
         0.34462E-04           0.27460E-04           0.18747E-04           0.30580E-04           0.35832E-04           0.44468E-04  
         0.71735E-04           0.71155E-04           0.60852E-04           0.60194E-04           0.47613E-04           0.38229E-04  
         0.12875E-03           0.92518E-04           0.58022E-04           0.69293E-04           0.80585E-04           0.85337E-04  
         0.83909E-04           0.62677E-04           0.47336E-04           0.53053E-04           0.33943E-04           0.31577E-04  