
.Version 9.2.2 of ABINIT 
.(MPI version, prepared for a x86_64_darwin19.6.0_gnu10.2 computer) 

.Copyright (C) 1998-2020 ABINIT group . 
 ABINIT comes with ABSOLUTELY NO WARRANTY.
 It is free software, and you are welcome to redistribute it
 under certain conditions (GNU General Public License,
 see ~abinit/COPYING or http://www.gnu.org/copyleft/gpl.txt).

 ABINIT is a project of the Universite Catholique de Louvain,
 Corning Inc. and other collaborators, see ~abinit/doc/developers/contributors.txt .
 Please read https://docs.abinit.org/theory/acknowledgments for suggested
 acknowledgments of the ABINIT effort.
 For more information, see https://www.abinit.org .

.Starting date : Fri 12 Mar 2021.
- ( at 01h28 )
  
- input  file    -> sth1_relax.in
- output file    -> sth1_relax.abo
- root for input  files -> sth1_relaxi
- root for output files -> sth1_relaxo


 DATASET    1 : space group P-4 3 m (#215); Bravais cP (primitive cubic)
================================================================================
 Values of the parameters that define the memory need for DATASET  1.
     intxc =       0    ionmov =       0      iscf =       7    lmnmax =       6
     lnmax =       6     mgfft =      24  mpssoang =       3    mqgrid =    3001
     natom =      21  nloc_mem =       1    nspden =       2   nspinor =       1
    nsppol =       2      nsym =      24    n1xccc =    2501    ntypat =       3
    occopt =       3   xclevel =       1
-    mband =         100        mffmem =           1         mkmem =           1
       mpw =         840          nfft =       13824          nkpt =           1
================================================================================
P This job should need less than                      11.780 Mbytes of memory.
  Rough estimation (10% accuracy) of disk space for files :
_ WF disk file :      2.565 Mbytes ; DEN or POT disk file :      0.213 Mbytes.
================================================================================


 DATASET    2 : space group P-4 3 m (#215); Bravais cP (primitive cubic)
================================================================================
 Values of the parameters that define the memory need for DATASET  2.
     intxc =       0    ionmov =       0      iscf =       7    lmnmax =       6
     lnmax =       6     mgfft =      32  mpssoang =       3    mqgrid =    3001
     natom =      21  nloc_mem =       1    nspden =       2   nspinor =       1
    nsppol =       2      nsym =      24    n1xccc =    2501    ntypat =       3
    occopt =       3   xclevel =       1
-    mband =         100        mffmem =           1         mkmem =           1
       mpw =        1856          nfft =       32768          nkpt =           1
================================================================================
P This job should need less than                      23.591 Mbytes of memory.
  Rough estimation (10% accuracy) of disk space for files :
_ WF disk file :      5.666 Mbytes ; DEN or POT disk file :      0.502 Mbytes.
================================================================================


 DATASET    3 : space group P-4 3 m (#215); Bravais cP (primitive cubic)
================================================================================
 Values of the parameters that define the memory need for DATASET  3.
     intxc =       0    ionmov =       0      iscf =       7    lmnmax =       6
     lnmax =       6     mgfft =      36  mpssoang =       3    mqgrid =    3001
     natom =      21  nloc_mem =       1    nspden =       2   nspinor =       1
    nsppol =       2      nsym =      24    n1xccc =    2501    ntypat =       3
    occopt =       3   xclevel =       1
-    mband =         100        mffmem =           1         mkmem =           1
       mpw =        3016          nfft =       46656          nkpt =           1
================================================================================
P This job should need less than                      33.744 Mbytes of memory.
  Rough estimation (10% accuracy) of disk space for files :
_ WF disk file :      9.206 Mbytes ; DEN or POT disk file :      0.714 Mbytes.
================================================================================


 DATASET    4 : space group P-4 3 m (#215); Bravais cP (primitive cubic)
================================================================================
 Values of the parameters that define the memory need for DATASET  4.
     intxc =       0    ionmov =       0      iscf =       7    lmnmax =       6
     lnmax =       6     mgfft =      45  mpssoang =       3    mqgrid =    3001
     natom =      21  nloc_mem =       1    nspden =       2   nspinor =       1
    nsppol =       2      nsym =      24    n1xccc =    2501    ntypat =       3
    occopt =       3   xclevel =       1
-    mband =         100        mffmem =           1         mkmem =           1
       mpw =        4272          nfft =       91125          nkpt =           1
================================================================================
P This job should need less than                      57.222 Mbytes of memory.
  Rough estimation (10% accuracy) of disk space for files :
_ WF disk file :     13.039 Mbytes ; DEN or POT disk file :      1.392 Mbytes.
================================================================================


 DATASET    5 : space group P-4 3 m (#215); Bravais cP (primitive cubic)
================================================================================
 Values of the parameters that define the memory need for DATASET  5.
     intxc =       0    ionmov =       0      iscf =       7    lmnmax =       6
     lnmax =       6     mgfft =      48  mpssoang =       3    mqgrid =    3001
     natom =      21  nloc_mem =       1    nspden =       2   nspinor =       1
    nsppol =       2      nsym =      24    n1xccc =    2501    ntypat =       3
    occopt =       3   xclevel =       1
-    mband =         100        mffmem =           1         mkmem =           1
       mpw =        5904          nfft =      110592          nkpt =           1
================================================================================
P This job should need less than                      71.589 Mbytes of memory.
  Rough estimation (10% accuracy) of disk space for files :
_ WF disk file :     18.020 Mbytes ; DEN or POT disk file :      1.690 Mbytes.
================================================================================


 DATASET    6 : space group P-4 3 m (#215); Bravais cP (primitive cubic)
================================================================================
 Values of the parameters that define the memory need for DATASET  6.
     intxc =       0    ionmov =       0      iscf =       7    lmnmax =       6
     lnmax =       6     mgfft =      50  mpssoang =       3    mqgrid =    3001
     natom =      21  nloc_mem =       1    nspden =       2   nspinor =       1
    nsppol =       2      nsym =      24    n1xccc =    2501    ntypat =       3
    occopt =       3   xclevel =       1
-    mband =         100        mffmem =           1         mkmem =           1
       mpw =        7568          nfft =      125000          nkpt =           1
================================================================================
P This job should need less than                      83.778 Mbytes of memory.
  Rough estimation (10% accuracy) of disk space for files :
_ WF disk file :     23.098 Mbytes ; DEN or POT disk file :      1.909 Mbytes.
================================================================================


 DATASET    7 : space group P-4 3 m (#215); Bravais cP (primitive cubic)
================================================================================
 Values of the parameters that define the memory need for DATASET  7.
     intxc =       0    ionmov =       0      iscf =       7    lmnmax =       6
     lnmax =       6     mgfft =      54  mpssoang =       3    mqgrid =    3001
     natom =      21  nloc_mem =       1    nspden =       2   nspinor =       1
    nsppol =       2      nsym =      24    n1xccc =    2501    ntypat =       3
    occopt =       3   xclevel =       1
-    mband =         100        mffmem =           1         mkmem =           1
       mpw =        9448          nfft =      157464          nkpt =           1
================================================================================
P This job should need less than                     104.480 Mbytes of memory.
  Rough estimation (10% accuracy) of disk space for files :
_ WF disk file :     28.835 Mbytes ; DEN or POT disk file :      2.405 Mbytes.
================================================================================


 DATASET    8 : space group P-4 3 m (#215); Bravais cP (primitive cubic)
================================================================================
 Values of the parameters that define the memory need for DATASET  8.
     intxc =       0    ionmov =       0      iscf =       7    lmnmax =       6
     lnmax =       6     mgfft =      60  mpssoang =       3    mqgrid =    3001
     natom =      21  nloc_mem =       1    nspden =       2   nspinor =       1
    nsppol =       2      nsym =      24    n1xccc =    2501    ntypat =       3
    occopt =       3   xclevel =       1
-    mband =         100        mffmem =           1         mkmem =           1
       mpw =       11296          nfft =      216000          nkpt =           1
================================================================================
P This job should need less than                     136.226 Mbytes of memory.
  Rough estimation (10% accuracy) of disk space for files :
_ WF disk file :     34.475 Mbytes ; DEN or POT disk file :      3.298 Mbytes.
================================================================================


 DATASET    9 : space group P-4 3 m (#215); Bravais cP (primitive cubic)
================================================================================
 Values of the parameters that define the memory need for DATASET  9.
     intxc =       0    ionmov =       0      iscf =       7    lmnmax =       6
     lnmax =       6     mgfft =      60  mpssoang =       3    mqgrid =    3001
     natom =      21  nloc_mem =       1    nspden =       2   nspinor =       1
    nsppol =       2      nsym =      24    n1xccc =    2501    ntypat =       3
    occopt =       3   xclevel =       1
-    mband =         100        mffmem =           1         mkmem =           1
       mpw =       13264          nfft =      216000          nkpt =           1
================================================================================
P This job should need less than                     143.343 Mbytes of memory.
  Rough estimation (10% accuracy) of disk space for files :
_ WF disk file :     40.481 Mbytes ; DEN or POT disk file :      3.298 Mbytes.
================================================================================


 DATASET   10 : space group P-4 3 m (#215); Bravais cP (primitive cubic)
================================================================================
 Values of the parameters that define the memory need for DATASET 10.
     intxc =       0    ionmov =       0      iscf =       7    lmnmax =       6
     lnmax =       6     mgfft =      64  mpssoang =       3    mqgrid =    3095
     natom =      21  nloc_mem =       1    nspden =       2   nspinor =       1
    nsppol =       2      nsym =      24    n1xccc =    2501    ntypat =       3
    occopt =       3   xclevel =       1
-    mband =         100        mffmem =           1         mkmem =           1
       mpw =       15408          nfft =      262144          nkpt =           1
================================================================================
P This job should need less than                     170.881 Mbytes of memory.
  Rough estimation (10% accuracy) of disk space for files :
_ WF disk file :     47.023 Mbytes ; DEN or POT disk file :      4.002 Mbytes.
================================================================================


 DATASET   11 : space group P-4 3 m (#215); Bravais cP (primitive cubic)
================================================================================
 Values of the parameters that define the memory need for DATASET 11.
     intxc =       0    ionmov =       0      iscf =       7    lmnmax =       6
     lnmax =       6     mgfft =      72  mpssoang =       3    mqgrid =    3239
     natom =      21  nloc_mem =       1    nspden =       2   nspinor =       1
    nsppol =       2      nsym =      24    n1xccc =    2501    ntypat =       3
    occopt =       3   xclevel =       1
-    mband =         100        mffmem =           1         mkmem =           1
       mpw =       17784          nfft =      373248          nkpt =           1
================================================================================
P This job should need less than                     227.072 Mbytes of memory.
  Rough estimation (10% accuracy) of disk space for files :
_ WF disk file :     54.274 Mbytes ; DEN or POT disk file :      5.697 Mbytes.
================================================================================


 DATASET   12 : space group P-4 3 m (#215); Bravais cP (primitive cubic)
================================================================================
 Values of the parameters that define the memory need for DATASET 12.
     intxc =       0    ionmov =       0      iscf =       7    lmnmax =       6
     lnmax =       6     mgfft =      72  mpssoang =       3    mqgrid =    3377
     natom =      21  nloc_mem =       1    nspden =       2   nspinor =       1
    nsppol =       2      nsym =      24    n1xccc =    2501    ntypat =       3
    occopt =       3   xclevel =       1
-    mband =         100        mffmem =           1         mkmem =           1
       mpw =       20336          nfft =      373248          nkpt =           1
================================================================================
P This job should need less than                     236.347 Mbytes of memory.
  Rough estimation (10% accuracy) of disk space for files :
_ WF disk file :     62.063 Mbytes ; DEN or POT disk file :      5.697 Mbytes.
================================================================================


 DATASET   13 : space group P-4 3 m (#215); Bravais cP (primitive cubic)
================================================================================
 Values of the parameters that define the memory need for DATASET 13.
     intxc =       0    ionmov =       0      iscf =       7    lmnmax =       6
     lnmax =       6     mgfft =      72  mpssoang =       3    mqgrid =    3509
     natom =      21  nloc_mem =       1    nspden =       2   nspinor =       1
    nsppol =       2      nsym =      24    n1xccc =    2501    ntypat =       3
    occopt =       3   xclevel =       1
-    mband =         100        mffmem =           1         mkmem =           1
       mpw =       22496          nfft =      373248          nkpt =           1
================================================================================
P This job should need less than                     244.203 Mbytes of memory.
  Rough estimation (10% accuracy) of disk space for files :
_ WF disk file :     68.654 Mbytes ; DEN or POT disk file :      5.697 Mbytes.
================================================================================


 DATASET   14 : space group P-4 3 m (#215); Bravais cP (primitive cubic)
================================================================================
 Values of the parameters that define the memory need for DATASET 14.
     intxc =       0    ionmov =       0      iscf =       7    lmnmax =       6
     lnmax =       6     mgfft =      75  mpssoang =       3    mqgrid =    3637
     natom =      21  nloc_mem =       1    nspden =       2   nspinor =       1
    nsppol =       2      nsym =      24    n1xccc =    2501    ntypat =       3
    occopt =       3   xclevel =       1
-    mband =         100        mffmem =           1         mkmem =           1
       mpw =       25064          nfft =      421875          nkpt =           1
================================================================================
P This job should need less than                     273.996 Mbytes of memory.
  Rough estimation (10% accuracy) of disk space for files :
_ WF disk file :     76.491 Mbytes ; DEN or POT disk file :      6.439 Mbytes.
================================================================================


 DATASET   15 : space group P-4 3 m (#215); Bravais cP (primitive cubic)
================================================================================
 Values of the parameters that define the memory need for DATASET 15.
     intxc =       0    ionmov =       0      iscf =       7    lmnmax =       6
     lnmax =       6     mgfft =      80  mpssoang =       3    mqgrid =    3760
     natom =      21  nloc_mem =       1    nspden =       2   nspinor =       1
    nsppol =       2      nsym =      24    n1xccc =    2501    ntypat =       3
    occopt =       3   xclevel =       1
-    mband =         100        mffmem =           1         mkmem =           1
       mpw =       27832          nfft =      512000          nkpt =           1
================================================================================
P This job should need less than                     322.955 Mbytes of memory.
  Rough estimation (10% accuracy) of disk space for files :
_ WF disk file :     84.939 Mbytes ; DEN or POT disk file :      7.815 Mbytes.
================================================================================

--------------------------------------------------------------------------------
------------- Echo of variables that govern the present computation ------------
--------------------------------------------------------------------------------
-
- outvars: echo of selected default values                                      
-   iomode0 =  0 , fftalg0 =312 , wfoptalg0 =  0
-
- outvars: echo of global parameters not present in the input file              
-  max_nthreads =    8
-
 -outvars: echo values of preprocessed input variables --------
            acell      1.5000000000E+01  1.5000000000E+01  1.5000000000E+01 Bohr
              amu      1.00794000E+00  1.59994000E+01  2.80855000E+01
           charge      1.00000000E+00
           diemac      1.20000000E+01
             ecut1     3.00000000E+00 Hartree
             ecut2     5.00000000E+00 Hartree
             ecut3     7.00000000E+00 Hartree
             ecut4     9.00000000E+00 Hartree
             ecut5     1.10000000E+01 Hartree
             ecut6     1.30000000E+01 Hartree
             ecut7     1.50000000E+01 Hartree
             ecut8     1.70000000E+01 Hartree
             ecut9     1.90000000E+01 Hartree
             ecut10    2.10000000E+01 Hartree
             ecut11    2.30000000E+01 Hartree
             ecut12    2.50000000E+01 Hartree
             ecut13    2.70000000E+01 Hartree
             ecut14    2.90000000E+01 Hartree
             ecut15    3.10000000E+01 Hartree
-          fftalg         312
           istwfk        1
              ixc       -1012
           jdtset        1    2    3    4    5    6    7    8    9   10
                        11   12   13   14   15
              kpt      5.00000000E-01  5.00000000E-01  5.00000000E-01
         kptrlatt        1    0    0      0    1    0      0    0    1
          kptrlen      1.50000000E+01
P           mkmem           1
            natom          21
            nband         100
           ndtset          15
            ngfft1         24      24      24
            ngfft2         32      32      32
            ngfft3         36      36      36
            ngfft4         45      45      45
            ngfft5         48      48      48
            ngfft6         50      50      50
            ngfft7         54      54      54
            ngfft8         60      60      60
            ngfft9         60      60      60
            ngfft10        64      64      64
            ngfft11        72      72      72
            ngfft12        72      72      72
            ngfft13        72      72      72
            ngfft14        75      75      75
            ngfft15        80      80      80
             nkpt           1
           nspden           2
           nsppol           2
            nstep         100
             nsym          24
           ntypat           3
              occ      1.000000  1.000000  1.000000  1.000000  1.000000  1.000000
                       1.000000  1.000000  1.000000  1.000000  1.000000  1.000000
                       1.000000  1.000000  1.000000  1.000000  1.000000  1.000000
                       1.000000  1.000000  1.000000  1.000000  1.000000  1.000000
                       1.000000  1.000000  1.000000  1.000000  0.000000  0.000000
                       0.000000  0.000000  0.000000  0.000000  0.000000  0.000000
                       0.000000  0.000000  0.000000  0.000000  0.000000  0.000000
                       0.000000  0.000000  0.000000  0.000000  0.000000  0.000000
                       0.000000  0.000000  0.000000  0.000000  0.000000  0.000000
                       0.000000  0.000000  0.000000  0.000000  0.000000  0.000000
                       0.000000  0.000000  0.000000  0.000000  0.000000  0.000000
                       0.000000  0.000000  0.000000  0.000000  0.000000  0.000000
                       0.000000  0.000000  0.000000  0.000000  0.000000  0.000000
                       0.000000  0.000000  0.000000  0.000000  0.000000  0.000000
                       0.000000  0.000000  0.000000  0.000000  0.000000  0.000000
                       0.000000  0.000000  0.000000  0.000000  0.000000  0.000000
                       0.000000  0.000000  0.000000  0.000000
                       1.000000  1.000000  1.000000  1.000000  1.000000  1.000000
                       1.000000  1.000000  1.000000  1.000000  1.000000  1.000000
                       1.000000  1.000000  1.000000  1.000000  1.000000  1.000000
                       1.000000  1.000000  1.000000  1.000000  1.000000  1.000000
                       1.000000  1.000000  1.000000  0.000000  0.000000  0.000000
                       0.000000  0.000000  0.000000  0.000000  0.000000  0.000000
                       0.000000  0.000000  0.000000  0.000000  0.000000  0.000000
                       0.000000  0.000000  0.000000  0.000000  0.000000  0.000000
                       0.000000  0.000000  0.000000  0.000000  0.000000  0.000000
                       0.000000  0.000000  0.000000  0.000000  0.000000  0.000000
                       0.000000  0.000000  0.000000  0.000000  0.000000  0.000000
                       0.000000  0.000000  0.000000  0.000000  0.000000  0.000000
                       0.000000  0.000000  0.000000  0.000000  0.000000  0.000000
                       0.000000  0.000000  0.000000  0.000000  0.000000  0.000000
                       0.000000  0.000000  0.000000  0.000000  0.000000  0.000000
                       0.000000  0.000000  0.000000  0.000000  0.000000  0.000000
                       0.000000  0.000000  0.000000  0.000000
           occopt           3
        optforces           1
           shiftk      5.00000000E-01  5.00000000E-01  5.00000000E-01
          spgroup         215
           spinat      0.0000000000E+00  0.0000000000E+00  1.0000000000E-01
                       0.0000000000E+00  0.0000000000E+00  1.0000000000E-01
                       0.0000000000E+00  0.0000000000E+00  1.0000000000E-01
                       0.0000000000E+00  0.0000000000E+00  1.0000000000E-01
                       0.0000000000E+00  0.0000000000E+00  1.0000000000E-01
                       0.0000000000E+00  0.0000000000E+00  1.0000000000E-01
                       0.0000000000E+00  0.0000000000E+00  1.0000000000E-01
                       0.0000000000E+00  0.0000000000E+00  1.0000000000E-01
                       0.0000000000E+00  0.0000000000E+00  1.0000000000E-01
                       0.0000000000E+00  0.0000000000E+00  1.0000000000E-01
                       0.0000000000E+00  0.0000000000E+00  1.0000000000E-01
                       0.0000000000E+00  0.0000000000E+00  1.0000000000E-01
                       0.0000000000E+00  0.0000000000E+00  1.0000000000E-01
                       0.0000000000E+00  0.0000000000E+00  1.0000000000E-01
                       0.0000000000E+00  0.0000000000E+00  1.0000000000E-01
                       0.0000000000E+00  0.0000000000E+00  1.0000000000E-01
                       0.0000000000E+00  0.0000000000E+00  1.0000000000E-01
                       0.0000000000E+00  0.0000000000E+00  1.0000000000E-01
                       0.0000000000E+00  0.0000000000E+00  1.0000000000E-01
                       0.0000000000E+00  0.0000000000E+00  1.0000000000E-01
                       0.0000000000E+00  0.0000000000E+00  1.0000000000E-01
           symrel      1  0  0   0  1  0   0  0  1      -1  0  0   0  1  0   0  0 -1
                      -1  0  0   0 -1  0   0  0  1       1  0  0   0 -1  0   0  0 -1
                       0  1  0   1  0  0   0  0  1       0 -1  0   1  0  0   0  0 -1
                       0 -1  0  -1  0  0   0  0  1       0  1  0  -1  0  0   0  0 -1
                       0  0  1   1  0  0   0  1  0       0  0 -1   1  0  0   0 -1  0
                       0  0 -1  -1  0  0   0  1  0       0  0  1  -1  0  0   0 -1  0
                       1  0  0   0  0  1   0  1  0      -1  0  0   0  0  1   0 -1  0
                      -1  0  0   0  0 -1   0  1  0       1  0  0   0  0 -1   0 -1  0
                       0  1  0   0  0  1   1  0  0       0 -1  0   0  0  1  -1  0  0
                       0 -1  0   0  0 -1   1  0  0       0  1  0   0  0 -1  -1  0  0
                       0  0  1   0  1  0   1  0  0       0  0 -1   0  1  0  -1  0  0
                       0  0 -1   0 -1  0   1  0  0       0  0  1   0 -1  0  -1  0  0
           tolrff      2.00000000E-02
           tsmear      1.00000000E-05 Hartree
            typat      3  3  3  3  3  2  2  2  2  1  1  1  1  1  1  1  1  1  1  1
                       1
           xangst      0.0000000000E+00  0.0000000000E+00  0.0000000000E+00
                       1.8804372284E+00 -1.8804372284E+00 -1.8804372284E+00
                      -1.8804372284E+00  1.8804372284E+00 -1.8804372284E+00
                      -1.8804372284E+00 -1.8804372284E+00  1.8804372284E+00
                       1.8804372284E+00  1.8804372284E+00  1.8804372284E+00
                       9.2904949682E-01 -9.2904949682E-01 -9.2904949682E-01
                      -9.2904949682E-01  9.2904949682E-01 -9.2904949682E-01
                      -9.2904949682E-01 -9.2904949682E-01  9.2904949682E-01
                       9.2904949682E-01  9.2904949682E-01  9.2904949682E-01
                       1.5645349042E+00 -1.5645349042E+00 -3.3105335111E+00
                       1.5645349042E+00 -3.3105335111E+00 -1.5645349042E+00
                       3.3105335111E+00 -1.5645349042E+00 -1.5645349042E+00
                      -1.5645349042E+00  1.5645349042E+00 -3.3105335111E+00
                      -1.5645349042E+00  3.3105335111E+00 -1.5645349042E+00
                      -3.3105335111E+00  1.5645349042E+00 -1.5645349042E+00
                      -1.5645349042E+00 -1.5645349042E+00  3.3105335111E+00
                      -1.5645349042E+00 -3.3105335111E+00  1.5645349042E+00
                      -3.3105335111E+00 -1.5645349042E+00  1.5645349042E+00
                       3.3105335111E+00  1.5645349042E+00  1.5645349042E+00
                       1.5645349042E+00  3.3105335111E+00  1.5645349042E+00
                       1.5645349042E+00  1.5645349042E+00  3.3105335111E+00
            xcart      0.0000000000E+00  0.0000000000E+00  0.0000000000E+00
                       3.5535113717E+00 -3.5535113717E+00 -3.5535113717E+00
                      -3.5535113717E+00  3.5535113717E+00 -3.5535113717E+00
                      -3.5535113717E+00 -3.5535113717E+00  3.5535113717E+00
                       3.5535113717E+00  3.5535113717E+00  3.5535113717E+00
                       1.7556491129E+00 -1.7556491129E+00 -1.7556491129E+00
                      -1.7556491129E+00  1.7556491129E+00 -1.7556491129E+00
                      -1.7556491129E+00 -1.7556491129E+00  1.7556491129E+00
                       1.7556491129E+00  1.7556491129E+00  1.7556491129E+00
                       2.9565424942E+00 -2.9565424942E+00 -6.2560016897E+00
                       2.9565424942E+00 -6.2560016897E+00 -2.9565424942E+00
                       6.2560016897E+00 -2.9565424942E+00 -2.9565424942E+00
                      -2.9565424942E+00  2.9565424942E+00 -6.2560016897E+00
                      -2.9565424942E+00  6.2560016897E+00 -2.9565424942E+00
                      -6.2560016897E+00  2.9565424942E+00 -2.9565424942E+00
                      -2.9565424942E+00 -2.9565424942E+00  6.2560016897E+00
                      -2.9565424942E+00 -6.2560016897E+00  2.9565424942E+00
                      -6.2560016897E+00 -2.9565424942E+00  2.9565424942E+00
                       6.2560016897E+00  2.9565424942E+00  2.9565424942E+00
                       2.9565424942E+00  6.2560016897E+00  2.9565424942E+00
                       2.9565424942E+00  2.9565424942E+00  6.2560016897E+00
             xred      0.0000000000E+00  0.0000000000E+00  0.0000000000E+00
                       2.3690075811E-01 -2.3690075811E-01 -2.3690075811E-01
                      -2.3690075811E-01  2.3690075811E-01 -2.3690075811E-01
                      -2.3690075811E-01 -2.3690075811E-01  2.3690075811E-01
                       2.3690075811E-01  2.3690075811E-01  2.3690075811E-01
                       1.1704327419E-01 -1.1704327419E-01 -1.1704327419E-01
                      -1.1704327419E-01  1.1704327419E-01 -1.1704327419E-01
                      -1.1704327419E-01 -1.1704327419E-01  1.1704327419E-01
                       1.1704327419E-01  1.1704327419E-01  1.1704327419E-01
                       1.9710283295E-01 -1.9710283295E-01 -4.1706677931E-01
                       1.9710283295E-01 -4.1706677931E-01 -1.9710283295E-01
                       4.1706677931E-01 -1.9710283295E-01 -1.9710283295E-01
                      -1.9710283295E-01  1.9710283295E-01 -4.1706677931E-01
                      -1.9710283295E-01  4.1706677931E-01 -1.9710283295E-01
                      -4.1706677931E-01  1.9710283295E-01 -1.9710283295E-01
                      -1.9710283295E-01 -1.9710283295E-01  4.1706677931E-01
                      -1.9710283295E-01 -4.1706677931E-01  1.9710283295E-01
                      -4.1706677931E-01 -1.9710283295E-01  1.9710283295E-01
                       4.1706677931E-01  1.9710283295E-01  1.9710283295E-01
                       1.9710283295E-01  4.1706677931E-01  1.9710283295E-01
                       1.9710283295E-01  1.9710283295E-01  4.1706677931E-01
            znucl        1.00000    8.00000   14.00000

================================================================================

 chkinp: Checking input parameters for consistency, jdtset=   1.

 chkinp: Checking input parameters for consistency, jdtset=   2.

 chkinp: Checking input parameters for consistency, jdtset=   3.

 chkinp: Checking input parameters for consistency, jdtset=   4.

 chkinp: Checking input parameters for consistency, jdtset=   5.

 chkinp: Checking input parameters for consistency, jdtset=   6.

 chkinp: Checking input parameters for consistency, jdtset=   7.

 chkinp: Checking input parameters for consistency, jdtset=   8.

 chkinp: Checking input parameters for consistency, jdtset=   9.

 chkinp: Checking input parameters for consistency, jdtset=  10.

 chkinp: Checking input parameters for consistency, jdtset=  11.

 chkinp: Checking input parameters for consistency, jdtset=  12.

 chkinp: Checking input parameters for consistency, jdtset=  13.

 chkinp: Checking input parameters for consistency, jdtset=  14.

 chkinp: Checking input parameters for consistency, jdtset=  15.

================================================================================
== DATASET  1 ==================================================================
-   mpi_nproc: 4, omp_nthreads: 8 (-1 if OMP is not activated)
-    --> not optimal distribution: autoparal keyword recommended in input file <--


--- !DatasetInfo
iteration_state: {dtset: 1, }
dimensions: {natom: 21, nkpt: 1, mband: 100, nsppol: 2, nspinor: 1, nspden: 2, mpw: 840, }
cutoff_energies: {ecut:   3.0, pawecutdg:  -1.0, }
electrons: {nelect:   5.50000000E+01, charge:   1.00000000E+00, occopt:   3.00000000E+00, tsmear:   1.00000000E-05, }
meta: {optdriver: 0, ionmov: 0, optcell: 0, iscf: 7, paral_kgb: 0, }
...

 Real(R)+Recip(G) space primitive vectors, cartesian coordinates (Bohr,Bohr^-1):
 R(1)= 15.0000000  0.0000000  0.0000000  G(1)=  0.0666667  0.0000000  0.0000000
 R(2)=  0.0000000 15.0000000  0.0000000  G(2)=  0.0000000  0.0666667  0.0000000
 R(3)=  0.0000000  0.0000000 15.0000000  G(3)=  0.0000000  0.0000000  0.0666667
 Unit cell volume ucvol=  3.3750000E+03 bohr^3
 Angles (23,13,12)=  9.00000000E+01  9.00000000E+01  9.00000000E+01 degrees

 getcut: wavevector=  0.0000  0.0000  0.0000  ngfft=  24  24  24
         ecut(hartree)=      3.000   => boxcut(ratio)=   2.05208

--- Pseudopotential description ------------------------------------------------
- pspini: atom type   1  psp file is /Users/ali/Desktop/JDFTX/build-withlibxc/pseudopotentials/H.psp8
- pspatm: opening atomic psp file    /Users/ali/Desktop/JDFTX/build-withlibxc/pseudopotentials/H.psp8
- H     ONCVPSP-3.3.0  r_core=   1.00957   0.90680
-  1.00000   1.00000    171101                znucl, zion, pspdat
    8   -1012    1    4       300   0.00000   pspcod,pspxc,lmax,lloc,mmax,r2well
    2.99000000000000    0.00000000000000    0.00000000000000   rchrg,fchrg,qchrg
     nproj     2     1
     extension_switch     1
  pspatm : epsatm=    0.35491505
         --- l  ekb(1:nproj) -->
             0   -1.665338   -0.519510
             1   -0.275071
 pspatm: atomic psp has been read  and splines computed

- pspini: atom type   2  psp file is /Users/ali/Desktop/JDFTX/build-withlibxc/pseudopotentials/O.psp8
- pspatm: opening atomic psp file    /Users/ali/Desktop/JDFTX/build-withlibxc/pseudopotentials/O.psp8
- O     ONCVPSP-3.3.0  r_core=   1.35509   1.45563   1.35509
-  8.00000   6.00000    171101                znucl, zion, pspdat
    8   -1012    2    4       600   0.00000   pspcod,pspxc,lmax,lloc,mmax,r2well
    5.99000000000000    4.00000000000000    0.00000000000000   rchrg,fchrg,qchrg
     nproj     2     2     1
     extension_switch     1
  pspatm : epsatm=    6.27558977
         --- l  ekb(1:nproj) -->
             0    6.026028    0.816167
             1   -4.798959   -1.172522
             2   -1.033686
 pspatm: atomic psp has been read  and splines computed

- pspini: atom type   3  psp file is /Users/ali/Desktop/JDFTX/build-withlibxc/pseudopotentials/Si.psp8
- pspatm: opening atomic psp file    /Users/ali/Desktop/JDFTX/build-withlibxc/pseudopotentials/Si.psp8
- Si    ONCVPSP-3.3.0  r_core=   1.60303   1.72197   1.91712
- 14.00000   4.00000    171102                znucl, zion, pspdat
    8   -1012    2    4       600   0.00000   pspcod,pspxc,lmax,lloc,mmax,r2well
    5.99000000000000    4.00000000000000    0.00000000000000   rchrg,fchrg,qchrg
     nproj     2     2     2
     extension_switch     1
  pspatm : epsatm=    6.67004110
         --- l  ekb(1:nproj) -->
             0    5.565958    0.856966
             1    2.726111    0.629828
             2   -2.124804   -0.444604
 pspatm: atomic psp has been read  and splines computed

   3.51184653E+03                                ecore*ucvol(ha*bohr**3)
--------------------------------------------------------------------------------

_setup2: Arith. and geom. avg. npw (full set) are     840.000     840.000

================================================================================

--- !BeginCycle
iteration_state: {dtset: 1, }
solver: {iscf: 7, nstep: 100, nline: 4, wfoptalg: 0, }
tolerances: {tolrff: 2.00E-02, }
...

     iter   Etot(hartree)     deltaE(h) residm    vres2   diffor   maxfor   magn
 ETOT  1  -79.306092622274    -7.93E+01 5.48E-03 2.27E+03 1.9E+00 1.95E+00 3.000
 ETOT  2  -82.534465971323    -3.23E+00 2.35E-03 1.59E+02 3.7E-01 1.60E+00 1.000
 ETOT  3  -82.699459861044    -1.65E-01 1.52E-03 2.65E+00 1.1E-01 1.71E+00 1.000
 ETOT  4  -82.701507099813    -2.05E-03 1.28E-04 7.06E-01 1.6E-02 1.69E+00 1.000
 ETOT  5  -82.702049993894    -5.43E-04 2.21E-05 3.68E-02 1.0E-02 1.70E+00 1.000

 At SCF step    5, forces are sufficiently converged : 
  for the second time, max diff in force=  1.040E-02 is less than < tolrff=  2.000E-02 times max force

 Cartesian components of stress tensor (hartree/bohr^3)
  sigma(1 1)=  1.23277943E-03  sigma(3 2)=  0.00000000E+00
  sigma(2 2)=  1.23277943E-03  sigma(3 1)=  0.00000000E+00
  sigma(3 3)=  1.23277943E-03  sigma(2 1)=  0.00000000E+00


--- !ResultsGS
iteration_state: {dtset: 1, }
comment   : Summary of ground state results
lattice_vectors:
- [ 15.0000000,   0.0000000,   0.0000000, ]
- [  0.0000000,  15.0000000,   0.0000000, ]
- [  0.0000000,   0.0000000,  15.0000000, ]
lattice_lengths: [  15.00000,   15.00000,   15.00000, ]
lattice_angles: [ 90.000,  90.000,  90.000, ] # degrees, (23, 13, 12)
lattice_volume:   3.3750000E+03
convergence: {deltae: -5.429E-04, res2:  3.684E-02, residm:  2.213E-05, diffor:  1.040E-02, }
etotal    :  -8.27020500E+01
entropy   :   0.00000000E+00
fermie    :  -1.11286343E-01
cartesian_stress_tensor: # hartree/bohr^3
- [  1.23277943E-03,   0.00000000E+00,   0.00000000E+00, ]
- [  0.00000000E+00,   1.23277943E-03,   0.00000000E+00, ]
- [  0.00000000E+00,   0.00000000E+00,   1.23277943E-03, ]
pressure_GPa:  -3.6270E+01
xred      :
- [  0.0000E+00,   0.0000E+00,   0.0000E+00, Si]
- [  2.3690E-01,  -2.3690E-01,  -2.3690E-01, Si]
- [ -2.3690E-01,   2.3690E-01,  -2.3690E-01, Si]
- [ -2.3690E-01,  -2.3690E-01,   2.3690E-01, Si]
- [  2.3690E-01,   2.3690E-01,   2.3690E-01, Si]
- [  1.1704E-01,  -1.1704E-01,  -1.1704E-01,  O]
- [ -1.1704E-01,   1.1704E-01,  -1.1704E-01,  O]
- [ -1.1704E-01,  -1.1704E-01,   1.1704E-01,  O]
- [  1.1704E-01,   1.1704E-01,   1.1704E-01,  O]
- [  1.9710E-01,  -1.9710E-01,  -4.1707E-01,  H]
- [  1.9710E-01,  -4.1707E-01,  -1.9710E-01,  H]
- [  4.1707E-01,  -1.9710E-01,  -1.9710E-01,  H]
- [ -1.9710E-01,   1.9710E-01,  -4.1707E-01,  H]
- [ -1.9710E-01,   4.1707E-01,  -1.9710E-01,  H]
- [ -4.1707E-01,   1.9710E-01,  -1.9710E-01,  H]
- [ -1.9710E-01,  -1.9710E-01,   4.1707E-01,  H]
- [ -1.9710E-01,  -4.1707E-01,   1.9710E-01,  H]
- [ -4.1707E-01,  -1.9710E-01,   1.9710E-01,  H]
- [  4.1707E-01,   1.9710E-01,   1.9710E-01,  H]
- [  1.9710E-01,   4.1707E-01,   1.9710E-01,  H]
- [  1.9710E-01,   1.9710E-01,   4.1707E-01,  H]
cartesian_forces: # hartree/bohr
- [ -2.89120579E-19,  -1.07594158E-17,  -1.09039761E-17, ]
- [  1.08586679E-01,  -1.08586679E-01,  -1.08586679E-01, ]
- [ -1.08586679E-01,   1.08586679E-01,  -1.08586679E-01, ]
- [ -1.08586679E-01,  -1.08586679E-01,   1.08586679E-01, ]
- [  1.08586679E-01,   1.08586679E-01,   1.08586679E-01, ]
- [  1.70370691E+00,  -1.70370691E+00,  -1.70370691E+00, ]
- [ -1.70370691E+00,   1.70370691E+00,  -1.70370691E+00, ]
- [ -1.70370691E+00,  -1.70370691E+00,   1.70370691E+00, ]
- [  1.70370691E+00,   1.70370691E+00,   1.70370691E+00, ]
- [ -3.55949571E-03,   3.55949571E-03,  -2.32871765E-02, ]
- [ -3.55949571E-03,  -2.32871765E-02,   3.55949571E-03, ]
- [  2.32871765E-02,   3.55949571E-03,   3.55949571E-03, ]
- [  3.55949571E-03,  -3.55949571E-03,  -2.32871765E-02, ]
- [  3.55949571E-03,   2.32871765E-02,   3.55949571E-03, ]
- [ -2.32871765E-02,  -3.55949571E-03,   3.55949571E-03, ]
- [  3.55949571E-03,   3.55949571E-03,   2.32871765E-02, ]
- [  3.55949571E-03,  -2.32871765E-02,  -3.55949571E-03, ]
- [ -2.32871765E-02,   3.55949571E-03,  -3.55949571E-03, ]
- [  2.32871765E-02,  -3.55949571E-03,  -3.55949571E-03, ]
- [ -3.55949571E-03,   2.32871765E-02,  -3.55949571E-03, ]
- [ -3.55949571E-03,  -3.55949571E-03,   2.32871765E-02, ]
force_length_stats: {min:   1.53214006E-17, max:   2.95090694E+00, mean:   6.11516135E-01, }
...

 Integrated electronic and magnetization densities in atomic spheres:
 ---------------------------------------------------------------------
 Radius=ratsph(iatom), smearing ratsm=  0.0000. Diff(up-dn)=approximate z local magnetic moment.
 Atom    Radius    up_density   dn_density  Total(up+dn)  Diff(up-dn)
    1   2.00000     1.664927     1.661826      3.326753     0.003100
    2   2.00000     1.019632     1.004978      2.024610     0.014653
    3   2.00000     1.019632     1.004978      2.024610     0.014653
    4   2.00000     1.019632     1.004978      2.024610     0.014653
    5   2.00000     1.019632     1.004978      2.024610     0.014653
    6   2.00000     2.757582     2.655090      5.412672     0.102492
    7   2.00000     2.757582     2.655090      5.412672     0.102492
    8   2.00000     2.757582     2.655090      5.412672     0.102492
    9   2.00000     2.757582     2.655090      5.412672     0.102492
   10   2.00000     0.699970     0.668384      1.368355     0.031586
   11   2.00000     0.699970     0.668384      1.368355     0.031586
   12   2.00000     0.699970     0.668384      1.368355     0.031586
   13   2.00000     0.699970     0.668384      1.368355     0.031586
   14   2.00000     0.699970     0.668384      1.368355     0.031586
   15   2.00000     0.699970     0.668384      1.368355     0.031586
   16   2.00000     0.699970     0.668384      1.368355     0.031586
   17   2.00000     0.699970     0.668384      1.368355     0.031586
   18   2.00000     0.699970     0.668384      1.368355     0.031586
   19   2.00000     0.699970     0.668384      1.368355     0.031586
   20   2.00000     0.699970     0.668384      1.368355     0.031586
   21   2.00000     0.699970     0.668384      1.368355     0.031586
 ---------------------------------------------------------------------
  Sum:             25.173427    24.322712     49.496140     0.850715
 Total magnetization (from the atomic spheres):             0.850715
 Total magnetization (exact up - dn):                       1.000000
================================================================================

 ----iterations are completed or convergence reached----

 Mean square residual over all n,k,spin=   24.815E-07; max=  22.131E-06
 reduced coordinates (array xred) for   21 atoms
       0.000000000000      0.000000000000      0.000000000000
       0.236900758113     -0.236900758113     -0.236900758113
      -0.236900758113      0.236900758113     -0.236900758113
      -0.236900758113     -0.236900758113      0.236900758113
       0.236900758113      0.236900758113      0.236900758113
       0.117043274193     -0.117043274193     -0.117043274193
      -0.117043274193      0.117043274193     -0.117043274193
      -0.117043274193     -0.117043274193      0.117043274193
       0.117043274193      0.117043274193      0.117043274193
       0.197102832947     -0.197102832947     -0.417066779311
       0.197102832947     -0.417066779311     -0.197102832947
       0.417066779311     -0.197102832947     -0.197102832947
      -0.197102832947      0.197102832947     -0.417066779311
      -0.197102832947      0.417066779311     -0.197102832947
      -0.417066779311      0.197102832947     -0.197102832947
      -0.197102832947     -0.197102832947      0.417066779311
      -0.197102832947     -0.417066779311      0.197102832947
      -0.417066779311     -0.197102832947      0.197102832947
       0.417066779311      0.197102832947      0.197102832947
       0.197102832947      0.417066779311      0.197102832947
       0.197102832947      0.197102832947      0.417066779311
 rms dE/dt=  1.1177E+01; max dE/dt=  2.5556E+01; dE/dt below (all hartree)
    1       0.000000000000      0.000000000000      0.000000000000
    2      -1.628800177761      1.628800177761      1.628800177761
    3       1.628800177761     -1.628800177761      1.628800177761
    4       1.628800177761      1.628800177761     -1.628800177761
    5      -1.628800177761     -1.628800177761     -1.628800177761
    6     -25.555603722415     25.555603722415     25.555603722415
    7      25.555603722415    -25.555603722415     25.555603722415
    8      25.555603722415     25.555603722415    -25.555603722415
    9     -25.555603722415    -25.555603722415    -25.555603722415
   10       0.053392435681     -0.053392435681      0.349307648119
   11       0.053392435681      0.349307648119     -0.053392435681
   12      -0.349307648119     -0.053392435681     -0.053392435681
   13      -0.053392435681      0.053392435681      0.349307648119
   14      -0.053392435681     -0.349307648119     -0.053392435681
   15       0.349307648119      0.053392435681     -0.053392435681
   16      -0.053392435681     -0.053392435681     -0.349307648119
   17      -0.053392435681      0.349307648119      0.053392435681
   18       0.349307648119     -0.053392435681      0.053392435681
   19      -0.349307648119      0.053392435681      0.053392435681
   20       0.053392435681     -0.349307648119      0.053392435681
   21       0.053392435681      0.053392435681     -0.349307648119

 cartesian coordinates (angstrom) at end:
    1      0.00000000000000     0.00000000000000     0.00000000000000
    2      1.88043722836728    -1.88043722836728    -1.88043722836728
    3     -1.88043722836728     1.88043722836728    -1.88043722836728
    4     -1.88043722836728    -1.88043722836728     1.88043722836728
    5      1.88043722836728     1.88043722836728     1.88043722836728
    6      0.92904949682336    -0.92904949682336    -0.92904949682336
    7     -0.92904949682336     0.92904949682336    -0.92904949682336
    8     -0.92904949682336    -0.92904949682336     0.92904949682336
    9      0.92904949682336     0.92904949682336     0.92904949682336
   10      1.56453490416110    -1.56453490416110    -3.31053351107177
   11      1.56453490416110    -3.31053351107177    -1.56453490416110
   12      3.31053351107177    -1.56453490416110    -1.56453490416110
   13     -1.56453490416110     1.56453490416110    -3.31053351107177
   14     -1.56453490416110     3.31053351107177    -1.56453490416110
   15     -3.31053351107177     1.56453490416110    -1.56453490416110
   16     -1.56453490416110    -1.56453490416110     3.31053351107177
   17     -1.56453490416110    -3.31053351107177     1.56453490416110
   18     -3.31053351107177    -1.56453490416110     1.56453490416110
   19      3.31053351107177     1.56453490416110     1.56453490416110
   20      1.56453490416110     3.31053351107177     1.56453490416110
   21      1.56453490416110     1.56453490416110     3.31053351107177

 cartesian forces (hartree/bohr) at end:
    1     -0.00000000000000    -0.00000000000000    -0.00000000000000
    2      0.10858667851740    -0.10858667851740    -0.10858667851740
    3     -0.10858667851740     0.10858667851740    -0.10858667851740
    4     -0.10858667851740    -0.10858667851740     0.10858667851740
    5      0.10858667851740     0.10858667851740     0.10858667851740
    6      1.70370691482770    -1.70370691482770    -1.70370691482769
    7     -1.70370691482770     1.70370691482770    -1.70370691482769
    8     -1.70370691482770    -1.70370691482770     1.70370691482770
    9      1.70370691482770     1.70370691482770     1.70370691482769
   10     -0.00355949571210     0.00355949571210    -0.02328717654129
   11     -0.00355949571210    -0.02328717654129     0.00355949571210
   12      0.02328717654129     0.00355949571210     0.00355949571210
   13      0.00355949571210    -0.00355949571210    -0.02328717654129
   14      0.00355949571210     0.02328717654129     0.00355949571210
   15     -0.02328717654129    -0.00355949571210     0.00355949571210
   16      0.00355949571210     0.00355949571210     0.02328717654129
   17      0.00355949571210    -0.02328717654129    -0.00355949571210
   18     -0.02328717654129     0.00355949571210    -0.00355949571210
   19      0.02328717654129    -0.00355949571210    -0.00355949571210
   20     -0.00355949571210     0.02328717654129    -0.00355949571210
   21     -0.00355949571210    -0.00355949571210     0.02328717654129
 frms,max,avg= 7.4513993E-01 1.7037069E+00   0.000E+00  0.000E+00  0.000E+00 h/b

 cartesian forces (eV/Angstrom) at end:
    1     -0.00000000000000    -0.00000000000000    -0.00000000000000
    2      5.58375104455554    -5.58375104455555    -5.58375104455554
    3     -5.58375104455554     5.58375104455554    -5.58375104455555
    4     -5.58375104455554    -5.58375104455555     5.58375104455554
    5      5.58375104455554     5.58375104455554     5.58375104455554
    6     87.60812463529977   -87.60812463529977   -87.60812463529976
    7    -87.60812463529977    87.60812463529977   -87.60812463529976
    8    -87.60812463529977   -87.60812463529977    87.60812463529977
    9     87.60812463529977    87.60812463529979    87.60812463529976
   10     -0.18303661344003     0.18303661344002    -1.19747466367472
   11     -0.18303661344003    -1.19747466367472     0.18303661344002
   12      1.19747466367472     0.18303661344002     0.18303661344002
   13      0.18303661344003    -0.18303661344003    -1.19747466367472
   14      0.18303661344003     1.19747466367472     0.18303661344002
   15     -1.19747466367472    -0.18303661344003     0.18303661344002
   16      0.18303661344003     0.18303661344002     1.19747466367472
   17      0.18303661344003    -1.19747466367472    -0.18303661344003
   18     -1.19747466367472     0.18303661344002    -0.18303661344003
   19      1.19747466367472    -0.18303661344003    -0.18303661344003
   20     -0.18303661344003     1.19747466367472    -0.18303661344003
   21     -0.18303661344003    -0.18303661344003     1.19747466367472
 frms,max,avg= 3.8316633E+01 8.7608125E+01   0.000E+00  0.000E+00  0.000E+00 e/A
 length scales= 15.000000000000 15.000000000000 15.000000000000 bohr
              =  7.937658128850  7.937658128850  7.937658128850 angstroms
 prteigrs : about to open file sth1_relaxo_DS1_EIG
 Fermi (or HOMO) energy (hartree) =  -0.11129   Average Vxc (hartree)=  -0.20629
 Magnetization (Bohr magneton)=  1.00000000E+00
 Total spin up =  2.80000000E+01   Total spin down =  2.70000000E+01
 Eigenvalues (hartree) for nkpt=   1  k points, SPIN UP:
 kpt#   1, nband=100, wtk=  1.00000, kpt=  0.5000  0.5000  0.5000 (reduced coord)
  -1.48763   -1.47334   -1.47334   -1.47334   -0.58229   -0.47058   -0.47058   -0.47058
  -0.32345   -0.31937   -0.31937   -0.31937   -0.28271   -0.28271   -0.26331   -0.26331
  -0.26331   -0.23148   -0.23148   -0.23148   -0.17577   -0.17577   -0.17577   -0.15837
  -0.15837   -0.11644   -0.11644   -0.11644   -0.02521    0.05267    0.05267    0.05267
   0.09956    0.09956    0.09956    0.13306    0.13306    0.13306    0.14014    0.15471
   0.15471    0.15471    0.15738    0.15738    0.15772    0.15772    0.15772    0.17087
   0.22435    0.22435    0.22655    0.23440    0.23440    0.23440    0.24493    0.24493
   0.24493    0.26135    0.26135    0.26135    0.29499    0.29499    0.29499    0.30597
   0.30597    0.30597    0.31772    0.31772    0.31772    0.32328    0.32328    0.32856
   0.36839    0.36839    0.36839    0.38324    0.38324    0.39341    0.39341    0.39341
   0.41448    0.41448    0.41448    0.43460    0.43473    0.43473    0.44472    0.44472
   0.44472    0.44820    0.45779    0.45779    0.45779    0.48258    0.48258    0.48258
   0.49602    0.49603    0.49609    0.51166
      occupation numbers for kpt#   1
   1.00000    1.00000    1.00000    1.00000    1.00000    1.00000    1.00000    1.00000
   1.00000    1.00000    1.00000    1.00000    1.00000    1.00000    1.00000    1.00000
   1.00000    1.00000    1.00000    1.00000    1.00000    1.00000    1.00000    1.00000
   1.00000    1.00000    1.00000    1.00000    0.00000    0.00000    0.00000    0.00000
   0.00000    0.00000    0.00000    0.00000    0.00000    0.00000    0.00000    0.00000
   0.00000    0.00000    0.00000    0.00000    0.00000    0.00000    0.00000    0.00000
   0.00000    0.00000    0.00000    0.00000    0.00000    0.00000    0.00000    0.00000
   0.00000    0.00000    0.00000    0.00000    0.00000    0.00000    0.00000    0.00000
   0.00000    0.00000    0.00000    0.00000    0.00000    0.00000    0.00000    0.00000
   0.00000    0.00000    0.00000    0.00000    0.00000    0.00000    0.00000    0.00000
   0.00000    0.00000    0.00000    0.00000    0.00000    0.00000    0.00000    0.00000
   0.00000    0.00000    0.00000    0.00000    0.00000    0.00000    0.00000    0.00000
   0.00000    0.00000    0.00000    0.00000
 Eigenvalues (hartree) for nkpt=   1  k points, SPIN DOWN:
 kpt#   1, nband=100, wtk=  1.00000, kpt=  0.5000  0.5000  0.5000 (reduced coord)
  -1.48383   -1.46934   -1.46934   -1.46934   -0.58040   -0.46832   -0.46832   -0.46832
  -0.32036   -0.31600   -0.31600   -0.31600   -0.27834   -0.27834   -0.25969   -0.25969
  -0.25969   -0.22740   -0.22740   -0.22740   -0.17195   -0.17195   -0.17195   -0.15417
  -0.15417   -0.11129   -0.11129   -0.11129   -0.02408    0.05418    0.05418    0.05418
   0.10070    0.10070    0.10070    0.13495    0.13495    0.13495    0.14068    0.15612
   0.15612    0.15612    0.15943    0.15943    0.15943    0.15957    0.15957    0.17193
   0.22555    0.22555    0.22839    0.23576    0.23576    0.23576    0.24637    0.24637
   0.24637    0.26263    0.26263    0.26263    0.29658    0.29658    0.29658    0.30788
   0.30788    0.30788    0.31945    0.31945    0.31945    0.32434    0.32434    0.32919
   0.36951    0.36951    0.36951    0.38457    0.38457    0.39499    0.39499    0.39499
   0.41550    0.41550    0.41550    0.43528    0.43674    0.43674    0.44579    0.44579
   0.44579    0.44933    0.45965    0.45965    0.45965    0.48396    0.48397    0.48397
   0.49743    0.49744    0.49749    0.51336
      occupation numbers for kpt#   1
   1.00000    1.00000    1.00000    1.00000    1.00000    1.00000    1.00000    1.00000
   1.00000    1.00000    1.00000    1.00000    1.00000    1.00000    1.00000    1.00000
   1.00000    1.00000    1.00000    1.00000    1.00000    1.00000    1.00000    1.00000
   1.00000    0.66667    0.66667    0.66667    0.00000    0.00000    0.00000    0.00000
   0.00000    0.00000    0.00000    0.00000    0.00000    0.00000    0.00000    0.00000
   0.00000    0.00000    0.00000    0.00000    0.00000    0.00000    0.00000    0.00000
   0.00000    0.00000    0.00000    0.00000    0.00000    0.00000    0.00000    0.00000
   0.00000    0.00000    0.00000    0.00000    0.00000    0.00000    0.00000    0.00000
   0.00000    0.00000    0.00000    0.00000    0.00000    0.00000    0.00000    0.00000
   0.00000    0.00000    0.00000    0.00000    0.00000    0.00000    0.00000    0.00000
   0.00000    0.00000    0.00000    0.00000    0.00000    0.00000    0.00000    0.00000
   0.00000    0.00000    0.00000    0.00000    0.00000    0.00000    0.00000    0.00000
   0.00000    0.00000    0.00000    0.00000

 Calculation was performed for a charged system with PBC
 You may consider including the monopole correction to the total energy
 The correction is to be divided by the dielectric constant

--- !EnergyTerms
iteration_state     : {dtset: 1, }
comment             : Components of total free energy in Hartree
kinetic             :  3.58208461868104E+01
hartree             :  5.61153354941784E+01
xc                  : -2.50642203230828E+01
Ewald energy        : -5.03322575371364E+00
psp_core            :  1.04054711858210E+00
local_psp           : -1.49656115696238E+02
non_local_psp       :  4.07480207499523E+00
internal            : -8.27020308984685E+01
'-kT*entropy'       : -1.90954250483082E-05
total_energy        : -8.27020499938936E+01
total_energy_eV     : -2.25043722839275E+03
band_energy         : -2.46366941797653E+01
monopole_correction :  9.45765826493538E-02
monopole_correction_eV:  2.57355969463858E+00
...


 Cartesian components of stress tensor (hartree/bohr^3)
  sigma(1 1)=  1.23277943E-03  sigma(3 2)=  0.00000000E+00
  sigma(2 2)=  1.23277943E-03  sigma(3 1)=  0.00000000E+00
  sigma(3 3)=  1.23277943E-03  sigma(2 1)=  0.00000000E+00

-Cartesian components of stress tensor (GPa)         [Pressure= -3.6270E+01 GPa]
- sigma(1 1)=  3.62696170E+01  sigma(3 2)=  0.00000000E+00
- sigma(2 2)=  3.62696170E+01  sigma(3 1)=  0.00000000E+00
- sigma(3 3)=  3.62696170E+01  sigma(2 1)=  0.00000000E+00

================================================================================
== DATASET  2 ==================================================================
-   mpi_nproc: 4, omp_nthreads: 8 (-1 if OMP is not activated)
-    --> not optimal distribution: autoparal keyword recommended in input file <--


--- !DatasetInfo
iteration_state: {dtset: 2, }
dimensions: {natom: 21, nkpt: 1, mband: 100, nsppol: 2, nspinor: 1, nspden: 2, mpw: 1856, }
cutoff_energies: {ecut:   5.0, pawecutdg:  -1.0, }
electrons: {nelect:   5.50000000E+01, charge:   1.00000000E+00, occopt:   3.00000000E+00, tsmear:   1.00000000E-05, }
meta: {optdriver: 0, ionmov: 0, optcell: 0, iscf: 7, paral_kgb: 0, }
...

 Real(R)+Recip(G) space primitive vectors, cartesian coordinates (Bohr,Bohr^-1):
 R(1)= 15.0000000  0.0000000  0.0000000  G(1)=  0.0666667  0.0000000  0.0000000
 R(2)=  0.0000000 15.0000000  0.0000000  G(2)=  0.0000000  0.0666667  0.0000000
 R(3)=  0.0000000  0.0000000 15.0000000  G(3)=  0.0000000  0.0000000  0.0666667
 Unit cell volume ucvol=  3.3750000E+03 bohr^3
 Angles (23,13,12)=  9.00000000E+01  9.00000000E+01  9.00000000E+01 degrees

 getcut: wavevector=  0.0000  0.0000  0.0000  ngfft=  32  32  32
         ecut(hartree)=      5.000   => boxcut(ratio)=   2.11938

--- Pseudopotential description ------------------------------------------------
- pspini: atom type   1  psp file is /Users/ali/Desktop/JDFTX/build-withlibxc/pseudopotentials/H.psp8
- pspatm: opening atomic psp file    /Users/ali/Desktop/JDFTX/build-withlibxc/pseudopotentials/H.psp8
- H     ONCVPSP-3.3.0  r_core=   1.00957   0.90680
-  1.00000   1.00000    171101                znucl, zion, pspdat
    8   -1012    1    4       300   0.00000   pspcod,pspxc,lmax,lloc,mmax,r2well
    2.99000000000000    0.00000000000000    0.00000000000000   rchrg,fchrg,qchrg
     nproj     2     1
     extension_switch     1
  pspatm : epsatm=    0.35491505
         --- l  ekb(1:nproj) -->
             0   -1.665338   -0.519510
             1   -0.275071
 pspatm: atomic psp has been read  and splines computed

- pspini: atom type   2  psp file is /Users/ali/Desktop/JDFTX/build-withlibxc/pseudopotentials/O.psp8
- pspatm: opening atomic psp file    /Users/ali/Desktop/JDFTX/build-withlibxc/pseudopotentials/O.psp8
- O     ONCVPSP-3.3.0  r_core=   1.35509   1.45563   1.35509
-  8.00000   6.00000    171101                znucl, zion, pspdat
    8   -1012    2    4       600   0.00000   pspcod,pspxc,lmax,lloc,mmax,r2well
    5.99000000000000    4.00000000000000    0.00000000000000   rchrg,fchrg,qchrg
     nproj     2     2     1
     extension_switch     1
  pspatm : epsatm=    6.27558977
         --- l  ekb(1:nproj) -->
             0    6.026028    0.816167
             1   -4.798959   -1.172522
             2   -1.033686
 pspatm: atomic psp has been read  and splines computed

- pspini: atom type   3  psp file is /Users/ali/Desktop/JDFTX/build-withlibxc/pseudopotentials/Si.psp8
- pspatm: opening atomic psp file    /Users/ali/Desktop/JDFTX/build-withlibxc/pseudopotentials/Si.psp8
- Si    ONCVPSP-3.3.0  r_core=   1.60303   1.72197   1.91712
- 14.00000   4.00000    171102                znucl, zion, pspdat
    8   -1012    2    4       600   0.00000   pspcod,pspxc,lmax,lloc,mmax,r2well
    5.99000000000000    4.00000000000000    0.00000000000000   rchrg,fchrg,qchrg
     nproj     2     2     2
     extension_switch     1
  pspatm : epsatm=    6.67004110
         --- l  ekb(1:nproj) -->
             0    5.565958    0.856966
             1    2.726111    0.629828
             2   -2.124804   -0.444604
 pspatm: atomic psp has been read  and splines computed

--------------------------------------------------------------------------------

_setup2: Arith. and geom. avg. npw (full set) are    1856.000    1856.000

================================================================================

--- !BeginCycle
iteration_state: {dtset: 2, }
solver: {iscf: 7, nstep: 100, nline: 4, wfoptalg: 0, }
tolerances: {tolrff: 2.00E-02, }
...

     iter   Etot(hartree)     deltaE(h) residm    vres2   diffor   maxfor   magn
 ETOT  1  -85.031408113445    -8.50E+01 8.23E-03 1.73E+03 5.2E-01 5.25E-01 1.000
 ETOT  2  -86.310111110941    -1.28E+00 1.42E-03 3.56E+02 3.1E-01 3.06E-01 1.000
 ETOT  3  -86.605054120697    -2.95E-01 3.14E-03 1.07E+00 1.1E-01 3.79E-01 1.000
 ETOT  4  -86.605750472923    -6.96E-04 2.81E-04 2.04E-01 5.4E-03 3.84E-01 1.000
 ETOT  5  -86.605791214915    -4.07E-05 1.07E-04 4.72E-02 4.2E-03 3.80E-01 1.000

 At SCF step    5, forces are sufficiently converged : 
  for the second time, max diff in force=  4.175E-03 is less than < tolrff=  2.000E-02 times max force

 Cartesian components of stress tensor (hartree/bohr^3)
  sigma(1 1)=  1.17744093E-03  sigma(3 2)=  0.00000000E+00
  sigma(2 2)=  1.17744093E-03  sigma(3 1)=  0.00000000E+00
  sigma(3 3)=  1.17744093E-03  sigma(2 1)=  0.00000000E+00


--- !ResultsGS
iteration_state: {dtset: 2, }
comment   : Summary of ground state results
lattice_vectors:
- [ 15.0000000,   0.0000000,   0.0000000, ]
- [  0.0000000,  15.0000000,   0.0000000, ]
- [  0.0000000,   0.0000000,  15.0000000, ]
lattice_lengths: [  15.00000,   15.00000,   15.00000, ]
lattice_angles: [ 90.000,  90.000,  90.000, ] # degrees, (23, 13, 12)
lattice_volume:   3.3750000E+03
convergence: {deltae: -4.074E-05, res2:  4.722E-02, residm:  1.067E-04, diffor:  4.175E-03, }
etotal    :  -8.66057912E+01
entropy   :   0.00000000E+00
fermie    :  -1.34706964E-01
cartesian_stress_tensor: # hartree/bohr^3
- [  1.17744093E-03,   0.00000000E+00,   0.00000000E+00, ]
- [  0.00000000E+00,   1.17744093E-03,   0.00000000E+00, ]
- [  0.00000000E+00,   0.00000000E+00,   1.17744093E-03, ]
pressure_GPa:  -3.4642E+01
xred      :
- [  0.0000E+00,   0.0000E+00,   0.0000E+00, Si]
- [  2.3690E-01,  -2.3690E-01,  -2.3690E-01, Si]
- [ -2.3690E-01,   2.3690E-01,  -2.3690E-01, Si]
- [ -2.3690E-01,  -2.3690E-01,   2.3690E-01, Si]
- [  2.3690E-01,   2.3690E-01,   2.3690E-01, Si]
- [  1.1704E-01,  -1.1704E-01,  -1.1704E-01,  O]
- [ -1.1704E-01,   1.1704E-01,  -1.1704E-01,  O]
- [ -1.1704E-01,  -1.1704E-01,   1.1704E-01,  O]
- [  1.1704E-01,   1.1704E-01,   1.1704E-01,  O]
- [  1.9710E-01,  -1.9710E-01,  -4.1707E-01,  H]
- [  1.9710E-01,  -4.1707E-01,  -1.9710E-01,  H]
- [  4.1707E-01,  -1.9710E-01,  -1.9710E-01,  H]
- [ -1.9710E-01,   1.9710E-01,  -4.1707E-01,  H]
- [ -1.9710E-01,   4.1707E-01,  -1.9710E-01,  H]
- [ -4.1707E-01,   1.9710E-01,  -1.9710E-01,  H]
- [ -1.9710E-01,  -1.9710E-01,   4.1707E-01,  H]
- [ -1.9710E-01,  -4.1707E-01,   1.9710E-01,  H]
- [ -4.1707E-01,  -1.9710E-01,   1.9710E-01,  H]
- [  4.1707E-01,   1.9710E-01,   1.9710E-01,  H]
- [  1.9710E-01,   4.1707E-01,   1.9710E-01,  H]
- [  1.9710E-01,   1.9710E-01,   4.1707E-01,  H]
cartesian_forces: # hartree/bohr
- [ -2.06514700E-20,   9.29316148E-20,  -5.28677631E-18, ]
- [  5.10864803E-02,  -5.10864803E-02,  -5.10864803E-02, ]
- [ -5.10864803E-02,   5.10864803E-02,  -5.10864803E-02, ]
- [ -5.10864803E-02,  -5.10864803E-02,   5.10864803E-02, ]
- [  5.10864803E-02,   5.10864803E-02,   5.10864803E-02, ]
- [  3.79908401E-01,  -3.79908401E-01,  -3.79908401E-01, ]
- [ -3.79908401E-01,   3.79908401E-01,  -3.79908401E-01, ]
- [ -3.79908401E-01,  -3.79908401E-01,   3.79908401E-01, ]
- [  3.79908401E-01,   3.79908401E-01,   3.79908401E-01, ]
- [ -1.87758975E-03,   1.87758975E-03,  -6.63680455E-03, ]
- [ -1.87758975E-03,  -6.63680455E-03,   1.87758975E-03, ]
- [  6.63680455E-03,   1.87758975E-03,   1.87758975E-03, ]
- [  1.87758975E-03,  -1.87758975E-03,  -6.63680455E-03, ]
- [  1.87758975E-03,   6.63680455E-03,   1.87758975E-03, ]
- [ -6.63680455E-03,  -1.87758975E-03,   1.87758975E-03, ]
- [  1.87758975E-03,   1.87758975E-03,   6.63680455E-03, ]
- [  1.87758975E-03,  -6.63680455E-03,  -1.87758975E-03, ]
- [ -6.63680455E-03,   1.87758975E-03,  -1.87758975E-03, ]
- [  6.63680455E-03,  -1.87758975E-03,  -1.87758975E-03, ]
- [ -1.87758975E-03,   6.63680455E-03,  -1.87758975E-03, ]
- [ -1.87758975E-03,  -1.87758975E-03,   6.63680455E-03, ]
force_length_stats: {min:   5.28763335E-18, max:   6.58020653E-01, mean:   1.46276164E-01, }
...

 Integrated electronic and magnetization densities in atomic spheres:
 ---------------------------------------------------------------------
 Radius=ratsph(iatom), smearing ratsm=  0.0000. Diff(up-dn)=approximate z local magnetic moment.
 Atom    Radius    up_density   dn_density  Total(up+dn)  Diff(up-dn)
    1   2.00000     1.491906     1.492519      2.984425    -0.000613
    2   2.00000     1.007541     0.993671      2.001211     0.013870
    3   2.00000     1.007541     0.993671      2.001211     0.013870
    4   2.00000     1.007541     0.993671      2.001211     0.013870
    5   2.00000     1.007541     0.993671      2.001211     0.013870
    6   2.00000     3.112046     2.987133      6.099179     0.124913
    7   2.00000     3.112046     2.987133      6.099179     0.124913
    8   2.00000     3.112046     2.987133      6.099179     0.124913
    9   2.00000     3.112046     2.987133      6.099179     0.124913
   10   2.00000     0.691095     0.658889      1.349984     0.032205
   11   2.00000     0.691095     0.658889      1.349984     0.032205
   12   2.00000     0.691095     0.658889      1.349984     0.032205
   13   2.00000     0.691095     0.658889      1.349984     0.032205
   14   2.00000     0.691095     0.658889      1.349984     0.032205
   15   2.00000     0.691095     0.658889      1.349984     0.032205
   16   2.00000     0.691095     0.658889      1.349984     0.032205
   17   2.00000     0.691095     0.658889      1.349984     0.032205
   18   2.00000     0.691095     0.658889      1.349984     0.032205
   19   2.00000     0.691095     0.658889      1.349984     0.032205
   20   2.00000     0.691095     0.658889      1.349984     0.032205
   21   2.00000     0.691095     0.658889      1.349984     0.032205
 ---------------------------------------------------------------------
  Sum:             26.263391    25.322407     51.585798     0.940984
 Total magnetization (from the atomic spheres):             0.940984
 Total magnetization (exact up - dn):                       1.000000
================================================================================

 ----iterations are completed or convergence reached----

 Mean square residual over all n,k,spin=   18.381E-07; max=  10.669E-05
 reduced coordinates (array xred) for   21 atoms
       0.000000000000      0.000000000000      0.000000000000
       0.236900758113     -0.236900758113     -0.236900758113
      -0.236900758113      0.236900758113     -0.236900758113
      -0.236900758113     -0.236900758113      0.236900758113
       0.236900758113      0.236900758113      0.236900758113
       0.117043274193     -0.117043274193     -0.117043274193
      -0.117043274193      0.117043274193     -0.117043274193
      -0.117043274193     -0.117043274193      0.117043274193
       0.117043274193      0.117043274193      0.117043274193
       0.197102832947     -0.197102832947     -0.417066779311
       0.197102832947     -0.417066779311     -0.197102832947
       0.417066779311     -0.197102832947     -0.197102832947
      -0.197102832947      0.197102832947     -0.417066779311
      -0.197102832947      0.417066779311     -0.197102832947
      -0.417066779311      0.197102832947     -0.197102832947
      -0.197102832947     -0.197102832947      0.417066779311
      -0.197102832947     -0.417066779311      0.197102832947
      -0.417066779311     -0.197102832947      0.197102832947
       0.417066779311      0.197102832947      0.197102832947
       0.197102832947      0.417066779311      0.197102832947
       0.197102832947      0.197102832947      0.417066779311
 rms dE/dt=  2.5099E+00; max dE/dt=  5.6986E+00; dE/dt below (all hartree)
    1       0.000000000000      0.000000000000      0.000000000000
    2      -0.766297203862      0.766297203862      0.766297203862
    3       0.766297203862     -0.766297203862      0.766297203862
    4       0.766297203862      0.766297203862     -0.766297203862
    5      -0.766297203862     -0.766297203862     -0.766297203862
    6      -5.698626019597      5.698626019597      5.698626019597
    7       5.698626019597     -5.698626019597      5.698626019597
    8       5.698626019597      5.698626019597     -5.698626019597
    9      -5.698626019597     -5.698626019597     -5.698626019597
   10       0.028163846229     -0.028163846229      0.099552068304
   11       0.028163846229      0.099552068304     -0.028163846229
   12      -0.099552068304     -0.028163846229     -0.028163846229
   13      -0.028163846229      0.028163846229      0.099552068304
   14      -0.028163846229     -0.099552068304     -0.028163846229
   15       0.099552068304      0.028163846229     -0.028163846229
   16      -0.028163846229     -0.028163846229     -0.099552068304
   17      -0.028163846229      0.099552068304      0.028163846229
   18       0.099552068304     -0.028163846229      0.028163846229
   19      -0.099552068304      0.028163846229      0.028163846229
   20       0.028163846229     -0.099552068304      0.028163846229
   21       0.028163846229      0.028163846229     -0.099552068304

 cartesian coordinates (angstrom) at end:
    1      0.00000000000000     0.00000000000000     0.00000000000000
    2      1.88043722836728    -1.88043722836728    -1.88043722836728
    3     -1.88043722836728     1.88043722836728    -1.88043722836728
    4     -1.88043722836728    -1.88043722836728     1.88043722836728
    5      1.88043722836728     1.88043722836728     1.88043722836728
    6      0.92904949682336    -0.92904949682336    -0.92904949682336
    7     -0.92904949682336     0.92904949682336    -0.92904949682336
    8     -0.92904949682336    -0.92904949682336     0.92904949682336
    9      0.92904949682336     0.92904949682336     0.92904949682336
   10      1.56453490416110    -1.56453490416110    -3.31053351107177
   11      1.56453490416110    -3.31053351107177    -1.56453490416110
   12      3.31053351107177    -1.56453490416110    -1.56453490416110
   13     -1.56453490416110     1.56453490416110    -3.31053351107177
   14     -1.56453490416110     3.31053351107177    -1.56453490416110
   15     -3.31053351107177     1.56453490416110    -1.56453490416110
   16     -1.56453490416110    -1.56453490416110     3.31053351107177
   17     -1.56453490416110    -3.31053351107177     1.56453490416110
   18     -3.31053351107177    -1.56453490416110     1.56453490416110
   19      3.31053351107177     1.56453490416110     1.56453490416110
   20      1.56453490416110     3.31053351107177     1.56453490416110
   21      1.56453490416110     1.56453490416110     3.31053351107177

 cartesian forces (hartree/bohr) at end:
    1     -0.00000000000000     0.00000000000000    -0.00000000000000
    2      0.05108648025749    -0.05108648025749    -0.05108648025749
    3     -0.05108648025749     0.05108648025749    -0.05108648025749
    4     -0.05108648025749    -0.05108648025749     0.05108648025749
    5      0.05108648025749     0.05108648025749     0.05108648025749
    6      0.37990840130646    -0.37990840130646    -0.37990840130646
    7     -0.37990840130646     0.37990840130646    -0.37990840130646
    8     -0.37990840130646    -0.37990840130646     0.37990840130646
    9      0.37990840130646     0.37990840130646     0.37990840130646
   10     -0.00187758974861     0.00187758974861    -0.00663680455361
   11     -0.00187758974861    -0.00663680455361     0.00187758974861
   12      0.00663680455361     0.00187758974861     0.00187758974861
   13      0.00187758974861    -0.00187758974861    -0.00663680455361
   14      0.00187758974861     0.00663680455361     0.00187758974861
   15     -0.00663680455361    -0.00187758974861     0.00187758974861
   16      0.00187758974861     0.00187758974861     0.00663680455361
   17      0.00187758974861    -0.00663680455361    -0.00187758974861
   18     -0.00663680455361     0.00187758974861    -0.00187758974861
   19      0.00663680455361    -0.00187758974861    -0.00187758974861
   20     -0.00187758974861     0.00663680455361    -0.00187758974861
   21     -0.00187758974861    -0.00187758974861     0.00663680455361
 frms,max,avg= 1.6732706E-01 3.7990840E-01   0.000E+00  0.000E+00  0.000E+00 h/b

 cartesian forces (eV/Angstrom) at end:
    1     -0.00000000000000     0.00000000000000    -0.00000000000000
    2      2.62697221606899    -2.62697221606899    -2.62697221606899
    3     -2.62697221606899     2.62697221606899    -2.62697221606899
    4     -2.62697221606899    -2.62697221606899     2.62697221606899
    5      2.62697221606899     2.62697221606899     2.62697221606899
    6     19.53567381923760   -19.53567381923760   -19.53567381923759
    7    -19.53567381923760    19.53567381923760   -19.53567381923760
    8    -19.53567381923760   -19.53567381923760    19.53567381923760
    9     19.53567381923760    19.53567381923760    19.53567381923760
   10     -0.09654953870207     0.09654953870207    -0.34127818315020
   11     -0.09654953870207    -0.34127818315020     0.09654953870207
   12      0.34127818315020     0.09654953870207     0.09654953870207
   13      0.09654953870207    -0.09654953870207    -0.34127818315020
   14      0.09654953870207     0.34127818315020     0.09654953870207
   15     -0.34127818315020    -0.09654953870207     0.09654953870207
   16      0.09654953870207     0.09654953870207     0.34127818315020
   17      0.09654953870207    -0.34127818315020    -0.09654953870207
   18     -0.34127818315020     0.09654953870207    -0.09654953870207
   19      0.34127818315020    -0.09654953870207    -0.09654953870207
   20     -0.09654953870207     0.34127818315020    -0.09654953870207
   21     -0.09654953870207    -0.09654953870207     0.34127818315020
 frms,max,avg= 8.6043029E+00 1.9535674E+01   0.000E+00  0.000E+00  0.000E+00 e/A
 length scales= 15.000000000000 15.000000000000 15.000000000000 bohr
              =  7.937658128850  7.937658128850  7.937658128850 angstroms
 prteigrs : about to open file sth1_relaxo_DS2_EIG
 Fermi (or HOMO) energy (hartree) =  -0.13471   Average Vxc (hartree)=  -0.20068
 Magnetization (Bohr magneton)=  1.00000000E+00
 Total spin up =  2.80000000E+01   Total spin down =  2.70000000E+01
 Eigenvalues (hartree) for nkpt=   1  k points, SPIN UP:
 kpt#   1, nband=100, wtk=  1.00000, kpt=  0.5000  0.5000  0.5000 (reduced coord)
  -1.27435   -1.25526   -1.25526   -1.25526   -0.52718   -0.44683   -0.44683   -0.44683
  -0.33816   -0.32052   -0.32052   -0.32052   -0.27006   -0.27006   -0.27004   -0.27004
  -0.27004   -0.23735   -0.23735   -0.23735   -0.18771   -0.18771   -0.18771   -0.17173
  -0.17173   -0.14061   -0.14061   -0.14061   -0.02546    0.05592    0.05592    0.05592
   0.08753    0.08753    0.08753    0.12127    0.12127    0.12127    0.13411    0.15074
   0.15074    0.15074    0.15329    0.15329    0.15329    0.15366    0.15366    0.16563
   0.18436    0.21367    0.21367    0.21805    0.21805    0.21805    0.23366    0.23366
   0.23366    0.25400    0.25400    0.25400    0.28715    0.28715    0.28715    0.29226
   0.29226    0.29226    0.31382    0.31382    0.31382    0.31591    0.31591    0.32371
   0.35810    0.35810    0.35810    0.38693    0.38693    0.38787    0.38787    0.38787
   0.40424    0.40424    0.40424    0.41837    0.43303    0.43303    0.43377    0.44649
   0.44649    0.44649    0.44663    0.44663    0.44663    0.47538    0.47538    0.47545
   0.47863    0.47863    0.47877    0.50376
      occupation numbers for kpt#   1
   1.00000    1.00000    1.00000    1.00000    1.00000    1.00000    1.00000    1.00000
   1.00000    1.00000    1.00000    1.00000    1.00000    1.00000    1.00000    1.00000
   1.00000    1.00000    1.00000    1.00000    1.00000    1.00000    1.00000    1.00000
   1.00000    1.00000    1.00000    1.00000    0.00000    0.00000    0.00000    0.00000
   0.00000    0.00000    0.00000    0.00000    0.00000    0.00000    0.00000    0.00000
   0.00000    0.00000    0.00000    0.00000    0.00000    0.00000    0.00000    0.00000
   0.00000    0.00000    0.00000    0.00000    0.00000    0.00000    0.00000    0.00000
   0.00000    0.00000    0.00000    0.00000    0.00000    0.00000    0.00000    0.00000
   0.00000    0.00000    0.00000    0.00000    0.00000    0.00000    0.00000    0.00000
   0.00000    0.00000    0.00000    0.00000    0.00000    0.00000    0.00000    0.00000
   0.00000    0.00000    0.00000    0.00000    0.00000    0.00000    0.00000    0.00000
   0.00000    0.00000    0.00000    0.00000    0.00000    0.00000    0.00000    0.00000
   0.00000    0.00000    0.00000    0.00000
 Eigenvalues (hartree) for nkpt=   1  k points, SPIN DOWN:
 kpt#   1, nband=100, wtk=  1.00000, kpt=  0.5000  0.5000  0.5000 (reduced coord)
  -1.26916   -1.24988   -1.24988   -1.24988   -0.52538   -0.44444   -0.44444   -0.44444
  -0.33508   -0.31709   -0.31709   -0.31709   -0.26584   -0.26584   -0.26584   -0.26530
  -0.26530   -0.23297   -0.23297   -0.23297   -0.18339   -0.18339   -0.18339   -0.16706
  -0.16706   -0.13471   -0.13471   -0.13471   -0.02435    0.05725    0.05725    0.05725
   0.08868    0.08868    0.08868    0.12298    0.12298    0.12298    0.13495    0.15269
   0.15269    0.15269    0.15434    0.15434    0.15434    0.15555    0.15555    0.16683
   0.18615    0.21488    0.21488    0.21993    0.21993    0.21993    0.23473    0.23473
   0.23473    0.25506    0.25506    0.25506    0.28878    0.28878    0.28878    0.29377
   0.29377    0.29377    0.31547    0.31547    0.31547    0.31691    0.31691    0.32446
   0.35922    0.35922    0.35922    0.38799    0.38799    0.38922    0.38922    0.38922
   0.40524    0.40524    0.40524    0.41962    0.43468    0.43481    0.43481    0.44753
   0.44753    0.44753    0.44818    0.44818    0.44818    0.47670    0.47670    0.47678
   0.47995    0.47995    0.48010    0.50528
      occupation numbers for kpt#   1
   1.00000    1.00000    1.00000    1.00000    1.00000    1.00000    1.00000    1.00000
   1.00000    1.00000    1.00000    1.00000    1.00000    1.00000    1.00000    1.00000
   1.00000    1.00000    1.00000    1.00000    1.00000    1.00000    1.00000    1.00000
   1.00000    0.66667    0.66667    0.66667    0.00000    0.00000    0.00000    0.00000
   0.00000    0.00000    0.00000    0.00000    0.00000    0.00000    0.00000    0.00000
   0.00000    0.00000    0.00000    0.00000    0.00000    0.00000    0.00000    0.00000
   0.00000    0.00000    0.00000    0.00000    0.00000    0.00000    0.00000    0.00000
   0.00000    0.00000    0.00000    0.00000    0.00000    0.00000    0.00000    0.00000
   0.00000    0.00000    0.00000    0.00000    0.00000    0.00000    0.00000    0.00000
   0.00000    0.00000    0.00000    0.00000    0.00000    0.00000    0.00000    0.00000
   0.00000    0.00000    0.00000    0.00000    0.00000    0.00000    0.00000    0.00000
   0.00000    0.00000    0.00000    0.00000    0.00000    0.00000    0.00000    0.00000
   0.00000    0.00000    0.00000    0.00000

[...]
                       0.000000  0.000000  0.000000  0.000000  0.000000  0.000000
                       0.000000  0.000000  0.000000  0.000000  0.000000  0.000000
                       0.000000  0.000000  0.000000  0.000000  0.000000  0.000000
                       0.000000  0.000000  0.000000  0.000000  0.000000  0.000000
                       0.000000  0.000000  0.000000  0.000000  0.000000  0.000000
                       0.000000  0.000000  0.000000  0.000000
                       1.000000  1.000000  1.000000  1.000000  1.000000  1.000000
                       1.000000  1.000000  1.000000  1.000000  1.000000  1.000000
                       1.000000  1.000000  1.000000  1.000000  1.000000  1.000000
                       1.000000  1.000000  1.000000  1.000000  1.000000  1.000000
                       1.000000  0.666667  0.666667  0.666667  0.000000  0.000000
                       0.000000  0.000000  0.000000  0.000000  0.000000  0.000000
                       0.000000  0.000000  0.000000  0.000000  0.000000  0.000000
                       0.000000  0.000000  0.000000  0.000000  0.000000  0.000000
                       0.000000  0.000000  0.000000  0.000000  0.000000  0.000000
                       0.000000  0.000000  0.000000  0.000000  0.000000  0.000000
                       0.000000  0.000000  0.000000  0.000000  0.000000  0.000000
                       0.000000  0.000000  0.000000  0.000000  0.000000  0.000000
                       0.000000  0.000000  0.000000  0.000000  0.000000  0.000000
                       0.000000  0.000000  0.000000  0.000000  0.000000  0.000000
                       0.000000  0.000000  0.000000  0.000000  0.000000  0.000000
                       0.000000  0.000000  0.000000  0.000000  0.000000  0.000000
                       0.000000  0.000000  0.000000  0.000000
              occ15    1.000000  1.000000  1.000000  1.000000  1.000000  1.000000
                       1.000000  1.000000  1.000000  1.000000  1.000000  1.000000
                       1.000000  1.000000  1.000000  1.000000  1.000000  1.000000
                       1.000000  1.000000  1.000000  1.000000  1.000000  1.000000
                       1.000000  1.000000  1.000000  1.000000  0.000000  0.000000
                       0.000000  0.000000  0.000000  0.000000  0.000000  0.000000
                       0.000000  0.000000  0.000000  0.000000  0.000000  0.000000
                       0.000000  0.000000  0.000000  0.000000  0.000000  0.000000
                       0.000000  0.000000  0.000000  0.000000  0.000000  0.000000
                       0.000000  0.000000  0.000000  0.000000  0.000000  0.000000
                       0.000000  0.000000  0.000000  0.000000  0.000000  0.000000
                       0.000000  0.000000  0.000000  0.000000  0.000000  0.000000
                       0.000000  0.000000  0.000000  0.000000  0.000000  0.000000
                       0.000000  0.000000  0.000000  0.000000  0.000000  0.000000
                       0.000000  0.000000  0.000000  0.000000  0.000000  0.000000
                       0.000000  0.000000  0.000000  0.000000  0.000000  0.000000
                       0.000000  0.000000  0.000000  0.000000
                       1.000000  1.000000  1.000000  1.000000  1.000000  1.000000
                       1.000000  1.000000  1.000000  1.000000  1.000000  1.000000
                       1.000000  1.000000  1.000000  1.000000  1.000000  1.000000
                       1.000000  1.000000  1.000000  1.000000  1.000000  1.000000
                       1.000000  0.666667  0.666667  0.666667  0.000000  0.000000
                       0.000000  0.000000  0.000000  0.000000  0.000000  0.000000
                       0.000000  0.000000  0.000000  0.000000  0.000000  0.000000
                       0.000000  0.000000  0.000000  0.000000  0.000000  0.000000
                       0.000000  0.000000  0.000000  0.000000  0.000000  0.000000
                       0.000000  0.000000  0.000000  0.000000  0.000000  0.000000
                       0.000000  0.000000  0.000000  0.000000  0.000000  0.000000
                       0.000000  0.000000  0.000000  0.000000  0.000000  0.000000
                       0.000000  0.000000  0.000000  0.000000  0.000000  0.000000
                       0.000000  0.000000  0.000000  0.000000  0.000000  0.000000
                       0.000000  0.000000  0.000000  0.000000  0.000000  0.000000
                       0.000000  0.000000  0.000000  0.000000  0.000000  0.000000
                       0.000000  0.000000  0.000000  0.000000
           occopt           3
        optforces           1
           shiftk      5.00000000E-01  5.00000000E-01  5.00000000E-01
          spgroup         215
           spinat      0.0000000000E+00  0.0000000000E+00  1.0000000000E-01
                       0.0000000000E+00  0.0000000000E+00  1.0000000000E-01
                       0.0000000000E+00  0.0000000000E+00  1.0000000000E-01
                       0.0000000000E+00  0.0000000000E+00  1.0000000000E-01
                       0.0000000000E+00  0.0000000000E+00  1.0000000000E-01
                       0.0000000000E+00  0.0000000000E+00  1.0000000000E-01
                       0.0000000000E+00  0.0000000000E+00  1.0000000000E-01
                       0.0000000000E+00  0.0000000000E+00  1.0000000000E-01
                       0.0000000000E+00  0.0000000000E+00  1.0000000000E-01
                       0.0000000000E+00  0.0000000000E+00  1.0000000000E-01
                       0.0000000000E+00  0.0000000000E+00  1.0000000000E-01
                       0.0000000000E+00  0.0000000000E+00  1.0000000000E-01
                       0.0000000000E+00  0.0000000000E+00  1.0000000000E-01
                       0.0000000000E+00  0.0000000000E+00  1.0000000000E-01
                       0.0000000000E+00  0.0000000000E+00  1.0000000000E-01
                       0.0000000000E+00  0.0000000000E+00  1.0000000000E-01
                       0.0000000000E+00  0.0000000000E+00  1.0000000000E-01
                       0.0000000000E+00  0.0000000000E+00  1.0000000000E-01
                       0.0000000000E+00  0.0000000000E+00  1.0000000000E-01
                       0.0000000000E+00  0.0000000000E+00  1.0000000000E-01
                       0.0000000000E+00  0.0000000000E+00  1.0000000000E-01
           strten1     1.2327794340E-03  1.2327794340E-03  1.2327794340E-03
                       0.0000000000E+00  0.0000000000E+00  0.0000000000E+00
           strten2     1.1774409329E-03  1.1774409329E-03  1.1774409329E-03
                       0.0000000000E+00  0.0000000000E+00  0.0000000000E+00
           strten3     1.0909783944E-03  1.0909783944E-03  1.0909783944E-03
                       0.0000000000E+00  0.0000000000E+00  0.0000000000E+00
           strten4     1.1097240374E-03  1.1097240374E-03  1.1097240374E-03
                       0.0000000000E+00  0.0000000000E+00  0.0000000000E+00
           strten5     1.0583786601E-03  1.0583786601E-03  1.0583786601E-03
                       0.0000000000E+00  0.0000000000E+00  0.0000000000E+00
           strten6     9.4906068691E-04  9.4906068691E-04  9.4906068691E-04
                       0.0000000000E+00  0.0000000000E+00  0.0000000000E+00
           strten7     8.0785507061E-04  8.0785507061E-04  8.0785507061E-04
                       0.0000000000E+00  0.0000000000E+00  0.0000000000E+00
           strten8     6.6639646628E-04  6.6639646628E-04  6.6639646628E-04
                       0.0000000000E+00  0.0000000000E+00  0.0000000000E+00
           strten9     5.3142069935E-04  5.3142069935E-04  5.3142069935E-04
                       0.0000000000E+00  0.0000000000E+00  0.0000000000E+00
           strten10    4.0675913849E-04  4.0675913849E-04  4.0675913849E-04
                       0.0000000000E+00  0.0000000000E+00  0.0000000000E+00
           strten11    2.9977471696E-04  2.9977471696E-04  2.9977471696E-04
                       0.0000000000E+00  0.0000000000E+00  0.0000000000E+00
           strten12    2.1710240523E-04  2.1710240523E-04  2.1710240523E-04
                       0.0000000000E+00  0.0000000000E+00  0.0000000000E+00
           strten13    1.6838775877E-04  1.6838775877E-04  1.6838775877E-04
                       0.0000000000E+00  0.0000000000E+00  0.0000000000E+00
           strten14    1.2907974275E-04  1.2907974275E-04  1.2907974275E-04
                       0.0000000000E+00  0.0000000000E+00  0.0000000000E+00
           strten15    1.0290073890E-04  1.0290073890E-04  1.0290073890E-04
                       0.0000000000E+00  0.0000000000E+00  0.0000000000E+00
           symrel      1  0  0   0  1  0   0  0  1      -1  0  0   0  1  0   0  0 -1
                      -1  0  0   0 -1  0   0  0  1       1  0  0   0 -1  0   0  0 -1
                       0  1  0   1  0  0   0  0  1       0 -1  0   1  0  0   0  0 -1
                       0 -1  0  -1  0  0   0  0  1       0  1  0  -1  0  0   0  0 -1
                       0  0  1   1  0  0   0  1  0       0  0 -1   1  0  0   0 -1  0
                       0  0 -1  -1  0  0   0  1  0       0  0  1  -1  0  0   0 -1  0
                       1  0  0   0  0  1   0  1  0      -1  0  0   0  0  1   0 -1  0
                      -1  0  0   0  0 -1   0  1  0       1  0  0   0  0 -1   0 -1  0
                       0  1  0   0  0  1   1  0  0       0 -1  0   0  0  1  -1  0  0
                       0 -1  0   0  0 -1   1  0  0       0  1  0   0  0 -1  -1  0  0
                       0  0  1   0  1  0   1  0  0       0  0 -1   0  1  0  -1  0  0
                       0  0 -1   0 -1  0   1  0  0       0  0  1   0 -1  0  -1  0  0
           tolrff      2.00000000E-02
           tsmear      1.00000000E-05 Hartree
            typat      3  3  3  3  3  2  2  2  2  1  1  1  1  1  1  1  1  1  1  1
                       1
           xangst      0.0000000000E+00  0.0000000000E+00  0.0000000000E+00
                       1.8804372284E+00 -1.8804372284E+00 -1.8804372284E+00
                      -1.8804372284E+00  1.8804372284E+00 -1.8804372284E+00
                      -1.8804372284E+00 -1.8804372284E+00  1.8804372284E+00
                       1.8804372284E+00  1.8804372284E+00  1.8804372284E+00
                       9.2904949682E-01 -9.2904949682E-01 -9.2904949682E-01
                      -9.2904949682E-01  9.2904949682E-01 -9.2904949682E-01
                      -9.2904949682E-01 -9.2904949682E-01  9.2904949682E-01
                       9.2904949682E-01  9.2904949682E-01  9.2904949682E-01
                       1.5645349042E+00 -1.5645349042E+00 -3.3105335111E+00
                       1.5645349042E+00 -3.3105335111E+00 -1.5645349042E+00
                       3.3105335111E+00 -1.5645349042E+00 -1.5645349042E+00
                      -1.5645349042E+00  1.5645349042E+00 -3.3105335111E+00
                      -1.5645349042E+00  3.3105335111E+00 -1.5645349042E+00
                      -3.3105335111E+00  1.5645349042E+00 -1.5645349042E+00
                      -1.5645349042E+00 -1.5645349042E+00  3.3105335111E+00
                      -1.5645349042E+00 -3.3105335111E+00  1.5645349042E+00
                      -3.3105335111E+00 -1.5645349042E+00  1.5645349042E+00
                       3.3105335111E+00  1.5645349042E+00  1.5645349042E+00
                       1.5645349042E+00  3.3105335111E+00  1.5645349042E+00
                       1.5645349042E+00  1.5645349042E+00  3.3105335111E+00
            xcart      0.0000000000E+00  0.0000000000E+00  0.0000000000E+00
                       3.5535113717E+00 -3.5535113717E+00 -3.5535113717E+00
                      -3.5535113717E+00  3.5535113717E+00 -3.5535113717E+00
                      -3.5535113717E+00 -3.5535113717E+00  3.5535113717E+00
                       3.5535113717E+00  3.5535113717E+00  3.5535113717E+00
                       1.7556491129E+00 -1.7556491129E+00 -1.7556491129E+00
                      -1.7556491129E+00  1.7556491129E+00 -1.7556491129E+00
                      -1.7556491129E+00 -1.7556491129E+00  1.7556491129E+00
                       1.7556491129E+00  1.7556491129E+00  1.7556491129E+00
                       2.9565424942E+00 -2.9565424942E+00 -6.2560016897E+00
                       2.9565424942E+00 -6.2560016897E+00 -2.9565424942E+00
                       6.2560016897E+00 -2.9565424942E+00 -2.9565424942E+00
                      -2.9565424942E+00  2.9565424942E+00 -6.2560016897E+00
                      -2.9565424942E+00  6.2560016897E+00 -2.9565424942E+00
                      -6.2560016897E+00  2.9565424942E+00 -2.9565424942E+00
                      -2.9565424942E+00 -2.9565424942E+00  6.2560016897E+00
                      -2.9565424942E+00 -6.2560016897E+00  2.9565424942E+00
                      -6.2560016897E+00 -2.9565424942E+00  2.9565424942E+00
                       6.2560016897E+00  2.9565424942E+00  2.9565424942E+00
                       2.9565424942E+00  6.2560016897E+00  2.9565424942E+00
                       2.9565424942E+00  2.9565424942E+00  6.2560016897E+00
             xred      0.0000000000E+00  0.0000000000E+00  0.0000000000E+00
                       2.3690075811E-01 -2.3690075811E-01 -2.3690075811E-01
                      -2.3690075811E-01  2.3690075811E-01 -2.3690075811E-01
                      -2.3690075811E-01 -2.3690075811E-01  2.3690075811E-01
                       2.3690075811E-01  2.3690075811E-01  2.3690075811E-01
                       1.1704327419E-01 -1.1704327419E-01 -1.1704327419E-01
                      -1.1704327419E-01  1.1704327419E-01 -1.1704327419E-01
                      -1.1704327419E-01 -1.1704327419E-01  1.1704327419E-01
                       1.1704327419E-01  1.1704327419E-01  1.1704327419E-01
                       1.9710283295E-01 -1.9710283295E-01 -4.1706677931E-01
                       1.9710283295E-01 -4.1706677931E-01 -1.9710283295E-01
                       4.1706677931E-01 -1.9710283295E-01 -1.9710283295E-01
                      -1.9710283295E-01  1.9710283295E-01 -4.1706677931E-01
                      -1.9710283295E-01  4.1706677931E-01 -1.9710283295E-01
                      -4.1706677931E-01  1.9710283295E-01 -1.9710283295E-01
                      -1.9710283295E-01 -1.9710283295E-01  4.1706677931E-01
                      -1.9710283295E-01 -4.1706677931E-01  1.9710283295E-01
                      -4.1706677931E-01 -1.9710283295E-01  1.9710283295E-01
                       4.1706677931E-01  1.9710283295E-01  1.9710283295E-01
                       1.9710283295E-01  4.1706677931E-01  1.9710283295E-01
                       1.9710283295E-01  1.9710283295E-01  4.1706677931E-01
            znucl        1.00000    8.00000   14.00000

================================================================================


- Timing analysis has been suppressed with timopt=0



================================================================================

 Suggested references for the acknowledgment of ABINIT usage.

 The users of ABINIT have little formal obligations with respect to the ABINIT group
 (those specified in the GNU General Public License, http://www.gnu.org/copyleft/gpl.txt).
 However, it is common practice in the scientific literature,
 to acknowledge the efforts of people that have made the research possible.
 In this spirit, please find below suggested citations of work written by ABINIT developers,
 corresponding to implementations inside of ABINIT that you have used in the present run.
 Note also that it will be of great value to readers of publications presenting these results,
 to read papers enabling them to understand the theoretical formalism and details
 of the ABINIT implementation.
 For information on why they are suggested, see also https://docs.abinit.org/theory/acknowledgments.
-
- [1] Libxc: A library of exchange and correlation functionals for density functional theory.
- M.A.L. Marques, M.J.T. Oliveira, T. Burnus, Computer Physics Communications 183, 2227 (2012).
- Comment: to be cited when LibXC is used (negative value of ixc)
- Strong suggestion to cite this paper.
- DOI and bibtex: see https://docs.abinit.org/theory/bibliography/#marques2012
-
- [2] The Abinit project: Impact, environment and recent developments.
- Computer Phys. Comm. 248, 107042 (2020).
- X.Gonze, B. Amadon, G. Antonius, F.Arnardi, L.Baguet, J.-M.Beuken,
- J.Bieder, F.Bottin, J.Bouchet, E.Bousquet, N.Brouwer, F.Bruneval,
- G.Brunin, T.Cavignac, J.-B. Charraud, Wei Chen, M.Cote, S.Cottenier,
- J.Denier, G.Geneste, Ph.Ghosez, M.Giantomassi, Y.Gillet, O.Gingras,
- D.R.Hamann, G.Hautier, Xu He, N.Helbig, N.Holzwarth, Y.Jia, F.Jollet,
- W.Lafargue-Dit-Hauret, K.Lejaeghere, M.A.L.Marques, A.Martin, C.Martins,
- H.P.C. Miranda, F.Naccarato, K. Persson, G.Petretto, V.Planes, Y.Pouillon,
- S.Prokhorenko, F.Ricci, G.-M.Rignanese, A.H.Romero, M.M.Schmitt, M.Torrent,
- M.J.van Setten, B.Van Troeye, M.J.Verstraete, G.Zerah and J.W.Zwanzig
- Comment: the fifth generic paper describing the ABINIT project.
- Note that a version of this paper, that is not formatted for Computer Phys. Comm. 
- is available at https://www.abinit.org/sites/default/files/ABINIT20.pdf .
- The licence allows the authors to put it on the Web.
- DOI and bibtex: see https://docs.abinit.org/theory/bibliography/#gonze2020
-
- [3] Optimized norm-conserving Vanderbilt pseudopotentials.
- D.R. Hamann, Phys. Rev. B 88, 085117 (2013).
- Comment: Some pseudopotential generated using the ONCVPSP code were used.
- DOI and bibtex: see https://docs.abinit.org/theory/bibliography/#hamann2013
-
- [4] ABINIT: Overview, and focus on selected capabilities
- J. Chem. Phys. 152, 124102 (2020).
- A. Romero, D.C. Allan, B. Amadon, G. Antonius, T. Applencourt, L.Baguet,
- J.Bieder, F.Bottin, J.Bouchet, E.Bousquet, F.Bruneval,
- G.Brunin, D.Caliste, M.Cote,
- J.Denier, C. Dreyer, Ph.Ghosez, M.Giantomassi, Y.Gillet, O.Gingras,
- D.R.Hamann, G.Hautier, F.Jollet, G. Jomard,
- A.Martin, 
- H.P.C. Miranda, F.Naccarato, G.Petretto, N.A. Pike, V.Planes,
- S.Prokhorenko, T. Rangel, F.Ricci, G.-M.Rignanese, M.Royo, M.Stengel, M.Torrent,
- M.J.van Setten, B.Van Troeye, M.J.Verstraete, J.Wiktor, J.W.Zwanziger, and X.Gonze.
- Comment: a global overview of ABINIT, with focus on selected capabilities .
- Note that a version of this paper, that is not formatted for J. Chem. Phys 
- is available at https://www.abinit.org/sites/default/files/ABINIT20_JPC.pdf .
- The licence allows the authors to put it on the Web.
- DOI and bibtex: see https://docs.abinit.org/theory/bibliography/#romero2020
-
- [5] Recent developments in the ABINIT software package.
- Computer Phys. Comm. 205, 106 (2016).
- X.Gonze, F.Jollet, F.Abreu Araujo, D.Adams, B.Amadon, T.Applencourt,
- C.Audouze, J.-M.Beuken, J.Bieder, A.Bokhanchuk, E.Bousquet, F.Bruneval
- D.Caliste, M.Cote, F.Dahm, F.Da Pieve, M.Delaveau, M.Di Gennaro,
- B.Dorado, C.Espejo, G.Geneste, L.Genovese, A.Gerossier, M.Giantomassi,
- Y.Gillet, D.R.Hamann, L.He, G.Jomard, J.Laflamme Janssen, S.Le Roux,
- A.Levitt, A.Lherbier, F.Liu, I.Lukacevic, A.Martin, C.Martins,
- M.J.T.Oliveira, S.Ponce, Y.Pouillon, T.Rangel, G.-M.Rignanese,
- A.H.Romero, B.Rousseau, O.Rubel, A.A.Shukri, M.Stankovski, M.Torrent,
- M.J.Van Setten, B.Van Troeye, M.J.Verstraete, D.Waroquier, J.Wiktor,
- B.Xu, A.Zhou, J.W.Zwanziger.
- Comment: the fourth generic paper describing the ABINIT project.
- Note that a version of this paper, that is not formatted for Computer Phys. Comm. 
- is available at https://www.abinit.org/sites/default/files/ABINIT16.pdf .
- The licence allows the authors to put it on the Web.
- DOI and bibtex: see https://docs.abinit.org/theory/bibliography/#gonze2016
-
- Proc.   0 individual time (sec): cpu=       2449.9  wall=       1365.2

================================================================================

 Calculation completed.
.Delivered   0 WARNINGs and   2 COMMENTs to log file.
+Overall time at end (sec) : cpu=       7500.4  wall=       5460.9
