
.Version 9.2.2 of ABINIT 
.(MPI version, prepared for a x86_64_darwin19.6.0_gnu10.2 computer) 

.Copyright (C) 1998-2020 ABINIT group . 
 ABINIT comes with ABSOLUTELY NO WARRANTY.
 It is free software, and you are welcome to redistribute it
 under certain conditions (GNU General Public License,
 see ~abinit/COPYING or http://www.gnu.org/copyleft/gpl.txt).

 ABINIT is a project of the Universite Catholique de Louvain,
 Corning Inc. and other collaborators, see ~abinit/doc/developers/contributors.txt .
 Please read https://docs.abinit.org/theory/acknowledgments for suggested
 acknowledgments of the ABINIT effort.
 For more information, see https://www.abinit.org .

.Starting date : Thu 11 Mar 2021.
- ( at 21h38 )
  
- input  file    -> sth1_relax.in
- output file    -> sth1_relax.abo
- root for input  files -> sth1_relaxi
- root for output files -> sth1_relaxo


 DATASET    1 : space group P-4 3 m (#215); Bravais cP (primitive cubic)
================================================================================
 Values of the parameters that define the memory need for DATASET  1.
     intxc =       0    ionmov =       0      iscf =       7    lmnmax =       6
     lnmax =       6     mgfft =      48  mpssoang =       3    mqgrid =    3001
     natom =      21  nloc_mem =       1    nspden =       1   nspinor =       1
    nsppol =       1      nsym =      24    n1xccc =    2501    ntypat =       3
    occopt =       1   xclevel =       1
-    mband =         100        mffmem =           1         mkmem =           1
       mpw =        6776          nfft =      110592          nkpt =           1
================================================================================
P This job should need less than                      46.830 Mbytes of memory.
  Rough estimation (10% accuracy) of disk space for files :
_ WF disk file :     10.341 Mbytes ; DEN or POT disk file :      0.846 Mbytes.
================================================================================

--------------------------------------------------------------------------------
------------- Echo of variables that govern the present computation ------------
--------------------------------------------------------------------------------
-
- outvars: echo of selected default values                                      
-   iomode0 =  0 , fftalg0 =312 , wfoptalg0 =  0
-
- outvars: echo of global parameters not present in the input file              
-  max_nthreads =    8
-
 -outvars: echo values of preprocessed input variables --------
            acell      1.5000000000E+01  1.5000000000E+01  1.5000000000E+01 Bohr
              amu      1.00794000E+00  1.59994000E+01  2.80855000E+01
           diemac      1.20000000E+01
             ecut      1.20000000E+01 Hartree
-          fftalg         312
           istwfk        1
              ixc       -1012
           jdtset        1
              kpt      5.00000000E-01  5.00000000E-01  5.00000000E-01
         kptrlatt        1    0    0      0    1    0      0    0    1
          kptrlen      1.50000000E+01
P           mkmem           1
            natom          21
            nband         100
           ndtset           1
            ngfft          48      48      48
             nkpt           1
            nstep         100
             nsym          24
           ntypat           3
              occ      2.000000  2.000000  2.000000  2.000000  2.000000  2.000000
                       2.000000  2.000000  2.000000  2.000000  2.000000  2.000000
                       2.000000  2.000000  2.000000  2.000000  2.000000  2.000000
                       2.000000  2.000000  2.000000  2.000000  2.000000  2.000000
                       2.000000  2.000000  2.000000  2.000000  0.000000  0.000000
                       0.000000  0.000000  0.000000  0.000000  0.000000  0.000000
                       0.000000  0.000000  0.000000  0.000000  0.000000  0.000000
                       0.000000  0.000000  0.000000  0.000000  0.000000  0.000000
                       0.000000  0.000000  0.000000  0.000000  0.000000  0.000000
                       0.000000  0.000000  0.000000  0.000000  0.000000  0.000000
                       0.000000  0.000000  0.000000  0.000000  0.000000  0.000000
                       0.000000  0.000000  0.000000  0.000000  0.000000  0.000000
                       0.000000  0.000000  0.000000  0.000000  0.000000  0.000000
                       0.000000  0.000000  0.000000  0.000000  0.000000  0.000000
                       0.000000  0.000000  0.000000  0.000000  0.000000  0.000000
                       0.000000  0.000000  0.000000  0.000000  0.000000  0.000000
                       0.000000  0.000000  0.000000  0.000000
        optforces           1
           shiftk      5.00000000E-01  5.00000000E-01  5.00000000E-01
          spgroup         215
           symrel      1  0  0   0  1  0   0  0  1      -1  0  0   0  1  0   0  0 -1
                      -1  0  0   0 -1  0   0  0  1       1  0  0   0 -1  0   0  0 -1
                       0  1  0   1  0  0   0  0  1       0 -1  0   1  0  0   0  0 -1
                       0 -1  0  -1  0  0   0  0  1       0  1  0  -1  0  0   0  0 -1
                       0  0  1   1  0  0   0  1  0       0  0 -1   1  0  0   0 -1  0
                       0  0 -1  -1  0  0   0  1  0       0  0  1  -1  0  0   0 -1  0
                       1  0  0   0  0  1   0  1  0      -1  0  0   0  0  1   0 -1  0
                      -1  0  0   0  0 -1   0  1  0       1  0  0   0  0 -1   0 -1  0
                       0  1  0   0  0  1   1  0  0       0 -1  0   0  0  1  -1  0  0
                       0 -1  0   0  0 -1   1  0  0       0  1  0   0  0 -1  -1  0  0
                       0  0  1   0  1  0   1  0  0       0  0 -1   0  1  0  -1  0  0
                       0  0 -1   0 -1  0   1  0  0       0  0  1   0 -1  0  -1  0  0
           tolrff      2.00000000E-02
            typat      3  3  3  3  3  2  2  2  2  1  1  1  1  1  1  1  1  1  1  1
                       1
           xangst      0.0000000000E+00  0.0000000000E+00  0.0000000000E+00
                       1.8804372284E+00 -1.8804372284E+00 -1.8804372284E+00
                      -1.8804372284E+00  1.8804372284E+00 -1.8804372284E+00
                      -1.8804372284E+00 -1.8804372284E+00  1.8804372284E+00
                       1.8804372284E+00  1.8804372284E+00  1.8804372284E+00
                       9.2904949682E-01 -9.2904949682E-01 -9.2904949682E-01
                      -9.2904949682E-01  9.2904949682E-01 -9.2904949682E-01
                      -9.2904949682E-01 -9.2904949682E-01  9.2904949682E-01
                       9.2904949682E-01  9.2904949682E-01  9.2904949682E-01
                       1.5645349042E+00 -1.5645349042E+00 -3.3105335111E+00
                       1.5645349042E+00 -3.3105335111E+00 -1.5645349042E+00
                       3.3105335111E+00 -1.5645349042E+00 -1.5645349042E+00
                      -1.5645349042E+00  1.5645349042E+00 -3.3105335111E+00
                      -1.5645349042E+00  3.3105335111E+00 -1.5645349042E+00
                      -3.3105335111E+00  1.5645349042E+00 -1.5645349042E+00
                      -1.5645349042E+00 -1.5645349042E+00  3.3105335111E+00
                      -1.5645349042E+00 -3.3105335111E+00  1.5645349042E+00
                      -3.3105335111E+00 -1.5645349042E+00  1.5645349042E+00
                       3.3105335111E+00  1.5645349042E+00  1.5645349042E+00
                       1.5645349042E+00  3.3105335111E+00  1.5645349042E+00
                       1.5645349042E+00  1.5645349042E+00  3.3105335111E+00
            xcart      0.0000000000E+00  0.0000000000E+00  0.0000000000E+00
                       3.5535113717E+00 -3.5535113717E+00 -3.5535113717E+00
                      -3.5535113717E+00  3.5535113717E+00 -3.5535113717E+00
                      -3.5535113717E+00 -3.5535113717E+00  3.5535113717E+00
                       3.5535113717E+00  3.5535113717E+00  3.5535113717E+00
                       1.7556491129E+00 -1.7556491129E+00 -1.7556491129E+00
                      -1.7556491129E+00  1.7556491129E+00 -1.7556491129E+00
                      -1.7556491129E+00 -1.7556491129E+00  1.7556491129E+00
                       1.7556491129E+00  1.7556491129E+00  1.7556491129E+00
                       2.9565424942E+00 -2.9565424942E+00 -6.2560016897E+00
                       2.9565424942E+00 -6.2560016897E+00 -2.9565424942E+00
                       6.2560016897E+00 -2.9565424942E+00 -2.9565424942E+00
                      -2.9565424942E+00  2.9565424942E+00 -6.2560016897E+00
                      -2.9565424942E+00  6.2560016897E+00 -2.9565424942E+00
                      -6.2560016897E+00  2.9565424942E+00 -2.9565424942E+00
                      -2.9565424942E+00 -2.9565424942E+00  6.2560016897E+00
                      -2.9565424942E+00 -6.2560016897E+00  2.9565424942E+00
                      -6.2560016897E+00 -2.9565424942E+00  2.9565424942E+00
                       6.2560016897E+00  2.9565424942E+00  2.9565424942E+00
                       2.9565424942E+00  6.2560016897E+00  2.9565424942E+00
                       2.9565424942E+00  2.9565424942E+00  6.2560016897E+00
             xred      0.0000000000E+00  0.0000000000E+00  0.0000000000E+00
                       2.3690075811E-01 -2.3690075811E-01 -2.3690075811E-01
                      -2.3690075811E-01  2.3690075811E-01 -2.3690075811E-01
                      -2.3690075811E-01 -2.3690075811E-01  2.3690075811E-01
                       2.3690075811E-01  2.3690075811E-01  2.3690075811E-01
                       1.1704327419E-01 -1.1704327419E-01 -1.1704327419E-01
                      -1.1704327419E-01  1.1704327419E-01 -1.1704327419E-01
                      -1.1704327419E-01 -1.1704327419E-01  1.1704327419E-01
                       1.1704327419E-01  1.1704327419E-01  1.1704327419E-01
                       1.9710283295E-01 -1.9710283295E-01 -4.1706677931E-01
                       1.9710283295E-01 -4.1706677931E-01 -1.9710283295E-01
                       4.1706677931E-01 -1.9710283295E-01 -1.9710283295E-01
                      -1.9710283295E-01  1.9710283295E-01 -4.1706677931E-01
                      -1.9710283295E-01  4.1706677931E-01 -1.9710283295E-01
                      -4.1706677931E-01  1.9710283295E-01 -1.9710283295E-01
                      -1.9710283295E-01 -1.9710283295E-01  4.1706677931E-01
                      -1.9710283295E-01 -4.1706677931E-01  1.9710283295E-01
                      -4.1706677931E-01 -1.9710283295E-01  1.9710283295E-01
                       4.1706677931E-01  1.9710283295E-01  1.9710283295E-01
                       1.9710283295E-01  4.1706677931E-01  1.9710283295E-01
                       1.9710283295E-01  1.9710283295E-01  4.1706677931E-01
            znucl        1.00000    8.00000   14.00000

================================================================================

 chkinp: Checking input parameters for consistency, jdtset=   1.

================================================================================
== DATASET  1 ==================================================================
-   mpi_nproc: 4, omp_nthreads: 8 (-1 if OMP is not activated)
-    --> not optimal distribution: autoparal keyword recommended in input file <--


--- !DatasetInfo
iteration_state: {dtset: 1, }
dimensions: {natom: 21, nkpt: 1, mband: 100, nsppol: 1, nspinor: 1, nspden: 1, mpw: 6776, }
cutoff_energies: {ecut:  12.0, pawecutdg:  -1.0, }
electrons: {nelect:   5.60000000E+01, charge:   0.00000000E+00, occopt:   1.00000000E+00, tsmear:   1.00000000E-02, }
meta: {optdriver: 0, ionmov: 0, optcell: 0, iscf: 7, paral_kgb: 0, }
...

 Real(R)+Recip(G) space primitive vectors, cartesian coordinates (Bohr,Bohr^-1):
 R(1)= 15.0000000  0.0000000  0.0000000  G(1)=  0.0666667  0.0000000  0.0000000
 R(2)=  0.0000000 15.0000000  0.0000000  G(2)=  0.0000000  0.0666667  0.0000000
 R(3)=  0.0000000  0.0000000 15.0000000  G(3)=  0.0000000  0.0000000  0.0666667
 Unit cell volume ucvol=  3.3750000E+03 bohr^3
 Angles (23,13,12)=  9.00000000E+01  9.00000000E+01  9.00000000E+01 degrees

 getcut: wavevector=  0.0000  0.0000  0.0000  ngfft=  48  48  48
         ecut(hartree)=     12.000   => boxcut(ratio)=   2.05208

--- Pseudopotential description ------------------------------------------------
- pspini: atom type   1  psp file is /Users/ali/Desktop/JDFTX/build-withlibxc/pseudopotentials/H.psp8
- pspatm: opening atomic psp file    /Users/ali/Desktop/JDFTX/build-withlibxc/pseudopotentials/H.psp8
- H     ONCVPSP-3.3.0  r_core=   1.00957   0.90680
-  1.00000   1.00000    171101                znucl, zion, pspdat
    8   -1012    1    4       300   0.00000   pspcod,pspxc,lmax,lloc,mmax,r2well
    2.99000000000000    0.00000000000000    0.00000000000000   rchrg,fchrg,qchrg
     nproj     2     1
     extension_switch     1
  pspatm : epsatm=    0.35491505
         --- l  ekb(1:nproj) -->
             0   -1.665338   -0.519510
             1   -0.275071
 pspatm: atomic psp has been read  and splines computed

- pspini: atom type   2  psp file is /Users/ali/Desktop/JDFTX/build-withlibxc/pseudopotentials/O.psp8
- pspatm: opening atomic psp file    /Users/ali/Desktop/JDFTX/build-withlibxc/pseudopotentials/O.psp8
- O     ONCVPSP-3.3.0  r_core=   1.35509   1.45563   1.35509
-  8.00000   6.00000    171101                znucl, zion, pspdat
    8   -1012    2    4       600   0.00000   pspcod,pspxc,lmax,lloc,mmax,r2well
    5.99000000000000    4.00000000000000    0.00000000000000   rchrg,fchrg,qchrg
     nproj     2     2     1
     extension_switch     1
  pspatm : epsatm=    6.27558977
         --- l  ekb(1:nproj) -->
             0    6.026028    0.816167
             1   -4.798959   -1.172522
             2   -1.033686
 pspatm: atomic psp has been read  and splines computed

- pspini: atom type   3  psp file is /Users/ali/Desktop/JDFTX/build-withlibxc/pseudopotentials/Si.psp8
- pspatm: opening atomic psp file    /Users/ali/Desktop/JDFTX/build-withlibxc/pseudopotentials/Si.psp8
- Si    ONCVPSP-3.3.0  r_core=   1.60303   1.72197   1.91712
- 14.00000   4.00000    171102                znucl, zion, pspdat
    8   -1012    2    4       600   0.00000   pspcod,pspxc,lmax,lloc,mmax,r2well
    5.99000000000000    4.00000000000000    0.00000000000000   rchrg,fchrg,qchrg
     nproj     2     2     2
     extension_switch     1
  pspatm : epsatm=    6.67004110
         --- l  ekb(1:nproj) -->
             0    5.565958    0.856966
             1    2.726111    0.629828
             2   -2.124804   -0.444604
 pspatm: atomic psp has been read  and splines computed

   3.51184653E+03                                ecore*ucvol(ha*bohr**3)
--------------------------------------------------------------------------------

_setup2: Arith. and geom. avg. npw (full set) are    6776.000    6776.000

================================================================================

--- !BeginCycle
iteration_state: {dtset: 1, }
solver: {iscf: 7, nstep: 100, nline: 4, wfoptalg: 0, }
tolerances: {tolrff: 2.00E-02, }
...

     iter   Etot(hartree)      deltaE(h)  residm     vres2    diffor    maxfor
 ETOT  1  -92.086479632145    -9.209E+01 1.016E-02 1.098E+02 2.327E-02 2.327E-02
 ETOT  2  -92.171860192616    -8.538E-02 4.921E-04 3.791E+01 3.254E-02 1.510E-02
 ETOT  3  -92.177657330696    -5.797E-03 2.991E-04 4.923E+00 2.110E-02 6.008E-03
 ETOT  4  -92.179548824435    -1.891E-03 8.483E-05 4.801E+00 1.061E-02 4.598E-03
 ETOT  5  -92.180629877669    -1.081E-03 5.401E-05 4.009E-01 6.783E-03 4.311E-03
 ETOT  6  -92.180653528579    -2.365E-05 2.115E-05 7.046E-02 5.060E-04 4.123E-03
 ETOT  7  -92.180658470104    -4.942E-06 1.045E-05 5.589E-03 7.145E-04 4.837E-03
 ETOT  8  -92.180658872405    -4.023E-07 5.460E-06 4.302E-04 2.952E-04 4.542E-03
 ETOT  9  -92.180658900333    -2.793E-08 2.790E-06 3.909E-05 1.383E-04 4.680E-03
 ETOT 10  -92.180658904486    -4.153E-09 1.484E-06 2.501E-06 3.818E-05 4.642E-03
 ETOT 11  -92.180658904650    -1.640E-10 7.616E-07 2.613E-07 6.259E-06 4.648E-03

 At SCF step   11, forces are sufficiently converged : 
  for the second time, max diff in force=  6.259E-06 is less than < tolrff=  2.000E-02 times max force

 Cartesian components of stress tensor (hartree/bohr^3)
  sigma(1 1)=  9.91296129E-04  sigma(3 2)=  0.00000000E+00
  sigma(2 2)=  9.91296129E-04  sigma(3 1)=  0.00000000E+00
  sigma(3 3)=  9.91296129E-04  sigma(2 1)=  0.00000000E+00


--- !ResultsGS
iteration_state: {dtset: 1, }
comment   : Summary of ground state results
lattice_vectors:
- [ 15.0000000,   0.0000000,   0.0000000, ]
- [  0.0000000,  15.0000000,   0.0000000, ]
- [  0.0000000,   0.0000000,  15.0000000, ]
lattice_lengths: [  15.00000,   15.00000,   15.00000, ]
lattice_angles: [ 90.000,  90.000,  90.000, ] # degrees, (23, 13, 12)
lattice_volume:   3.3750000E+03
convergence: {deltae: -1.640E-10, res2:  2.613E-07, residm:  7.616E-07, diffor:  6.259E-06, }
etotal    :  -9.21806589E+01
entropy   :   0.00000000E+00
fermie    :  -1.57288964E-01
cartesian_stress_tensor: # hartree/bohr^3
- [  9.91296129E-04,   0.00000000E+00,   0.00000000E+00, ]
- [  0.00000000E+00,   9.91296129E-04,   0.00000000E+00, ]
- [  0.00000000E+00,   0.00000000E+00,   9.91296129E-04, ]
pressure_GPa:  -2.9165E+01
xred      :
- [  0.0000E+00,   0.0000E+00,   0.0000E+00, Si]
- [  2.3690E-01,  -2.3690E-01,  -2.3690E-01, Si]
- [ -2.3690E-01,   2.3690E-01,  -2.3690E-01, Si]
- [ -2.3690E-01,  -2.3690E-01,   2.3690E-01, Si]
- [  2.3690E-01,   2.3690E-01,   2.3690E-01, Si]
- [  1.1704E-01,  -1.1704E-01,  -1.1704E-01,  O]
- [ -1.1704E-01,   1.1704E-01,  -1.1704E-01,  O]
- [ -1.1704E-01,  -1.1704E-01,   1.1704E-01,  O]
- [  1.1704E-01,   1.1704E-01,   1.1704E-01,  O]
- [  1.9710E-01,  -1.9710E-01,  -4.1707E-01,  H]
- [  1.9710E-01,  -4.1707E-01,  -1.9710E-01,  H]
- [  4.1707E-01,  -1.9710E-01,  -1.9710E-01,  H]
- [ -1.9710E-01,   1.9710E-01,  -4.1707E-01,  H]
- [ -1.9710E-01,   4.1707E-01,  -1.9710E-01,  H]
- [ -4.1707E-01,   1.9710E-01,  -1.9710E-01,  H]
- [ -1.9710E-01,  -1.9710E-01,   4.1707E-01,  H]
- [ -1.9710E-01,  -4.1707E-01,   1.9710E-01,  H]
- [ -4.1707E-01,  -1.9710E-01,   1.9710E-01,  H]
- [  4.1707E-01,   1.9710E-01,   1.9710E-01,  H]
- [  1.9710E-01,   4.1707E-01,   1.9710E-01,  H]
- [  1.9710E-01,   1.9710E-01,   4.1707E-01,  H]
cartesian_forces: # hartree/bohr
- [ -1.03257350E-20,   6.19544099E-20,  -5.16286749E-20, ]
- [ -3.38300088E-03,   3.38300088E-03,   3.38300088E-03, ]
- [  3.38300088E-03,  -3.38300088E-03,   3.38300088E-03, ]
- [  3.38300088E-03,   3.38300088E-03,  -3.38300088E-03, ]
- [ -3.38300088E-03,  -3.38300088E-03,  -3.38300088E-03, ]
- [  4.64845148E-03,  -4.64845148E-03,  -4.64845148E-03, ]
- [ -4.64845148E-03,   4.64845148E-03,  -4.64845148E-03, ]
- [ -4.64845148E-03,  -4.64845148E-03,   4.64845148E-03, ]
- [  4.64845148E-03,   4.64845148E-03,   4.64845148E-03, ]
- [  1.20702931E-03,  -1.20702931E-03,  -1.18444255E-03, ]
- [  1.20702931E-03,  -1.18444255E-03,  -1.20702931E-03, ]
- [  1.18444255E-03,  -1.20702931E-03,  -1.20702931E-03, ]
- [ -1.20702931E-03,   1.20702931E-03,  -1.18444255E-03, ]
- [ -1.20702931E-03,   1.18444255E-03,  -1.20702931E-03, ]
- [ -1.18444255E-03,   1.20702931E-03,  -1.20702931E-03, ]
- [ -1.20702931E-03,  -1.20702931E-03,   1.18444255E-03, ]
- [ -1.20702931E-03,  -1.18444255E-03,   1.20702931E-03, ]
- [ -1.18444255E-03,  -1.20702931E-03,   1.20702931E-03, ]
- [  1.18444255E-03,   1.20702931E-03,   1.20702931E-03, ]
- [  1.20702931E-03,   1.18444255E-03,   1.20702931E-03, ]
- [  1.20702931E-03,   1.20702931E-03,   1.18444255E-03, ]
force_length_stats: {min:   8.13049185E-20, max:   8.05135414E-03, mean:   3.83693637E-03, }
...

 Integrated electronic density in atomic spheres:
 ------------------------------------------------
 Atom  Sphere_radius  Integrated_density
    1        2.00000          2.29459747
    2        2.00000          1.99784918
    3        2.00000          1.99784918
    4        2.00000          1.99784918
    5        2.00000          1.99784918
    6        2.00000          6.32315667
    7        2.00000          6.32315667
    8        2.00000          6.32315667
    9        2.00000          6.32315667
   10        2.00000          1.41002890
   11        2.00000          1.41002890
   12        2.00000          1.41002890
   13        2.00000          1.41002890
   14        2.00000          1.41002890
   15        2.00000          1.41002890
   16        2.00000          1.41002890
   17        2.00000          1.41002890
   18        2.00000          1.41002890
   19        2.00000          1.41002890
   20        2.00000          1.41002890
   21        2.00000          1.41002890
================================================================================

 ----iterations are completed or convergence reached----

 Mean square residual over all n,k,spin=   76.661E-10; max=  76.163E-08
 reduced coordinates (array xred) for   21 atoms
       0.000000000000      0.000000000000      0.000000000000
       0.236900758113     -0.236900758113     -0.236900758113
      -0.236900758113      0.236900758113     -0.236900758113
      -0.236900758113     -0.236900758113      0.236900758113
       0.236900758113      0.236900758113      0.236900758113
       0.117043274193     -0.117043274193     -0.117043274193
      -0.117043274193      0.117043274193     -0.117043274193
      -0.117043274193     -0.117043274193      0.117043274193
       0.117043274193      0.117043274193      0.117043274193
       0.197102832947     -0.197102832947     -0.417066779311
       0.197102832947     -0.417066779311     -0.197102832947
       0.417066779311     -0.197102832947     -0.197102832947
      -0.197102832947      0.197102832947     -0.417066779311
      -0.197102832947      0.417066779311     -0.197102832947
      -0.417066779311      0.197102832947     -0.197102832947
      -0.197102832947     -0.197102832947      0.417066779311
      -0.197102832947     -0.417066779311      0.197102832947
      -0.417066779311     -0.197102832947      0.197102832947
       0.417066779311      0.197102832947      0.197102832947
       0.197102832947      0.417066779311      0.197102832947
       0.197102832947      0.197102832947      0.417066779311
 rms dE/dt=  4.0019E-02; max dE/dt=  6.9727E-02; dE/dt below (all hartree)
    1       0.000000000000      0.000000000000      0.000000000000
    2       0.050745013138     -0.050745013138     -0.050745013138
    3      -0.050745013138      0.050745013138     -0.050745013138
    4      -0.050745013138     -0.050745013138      0.050745013138
    5       0.050745013138      0.050745013138      0.050745013138
    6      -0.069726772242      0.069726772242      0.069726772242
    7       0.069726772242     -0.069726772242      0.069726772242
    8       0.069726772242      0.069726772242     -0.069726772242
    9      -0.069726772242     -0.069726772242     -0.069726772242
   10      -0.018105439638      0.018105439638      0.017766638201
   11      -0.018105439638      0.017766638201      0.018105439638
   12      -0.017766638201      0.018105439638      0.018105439638
   13       0.018105439638     -0.018105439638      0.017766638201
   14       0.018105439638     -0.017766638201      0.018105439638
   15       0.017766638201     -0.018105439638      0.018105439638
   16       0.018105439638      0.018105439638     -0.017766638201
   17       0.018105439638      0.017766638201     -0.018105439638
   18       0.017766638201      0.018105439638     -0.018105439638
   19      -0.017766638201     -0.018105439638     -0.018105439638
   20      -0.018105439638     -0.017766638201     -0.018105439638
   21      -0.018105439638     -0.018105439638     -0.017766638201

 cartesian coordinates (angstrom) at end:
    1      0.00000000000000     0.00000000000000     0.00000000000000
    2      1.88043722836728    -1.88043722836728    -1.88043722836728
    3     -1.88043722836728     1.88043722836728    -1.88043722836728
    4     -1.88043722836728    -1.88043722836728     1.88043722836728
    5      1.88043722836728     1.88043722836728     1.88043722836728
    6      0.92904949682336    -0.92904949682336    -0.92904949682336
    7     -0.92904949682336     0.92904949682336    -0.92904949682336
    8     -0.92904949682336    -0.92904949682336     0.92904949682336
    9      0.92904949682336     0.92904949682336     0.92904949682336
   10      1.56453490416110    -1.56453490416110    -3.31053351107177
   11      1.56453490416110    -3.31053351107177    -1.56453490416110
   12      3.31053351107177    -1.56453490416110    -1.56453490416110
   13     -1.56453490416110     1.56453490416110    -3.31053351107177
   14     -1.56453490416110     3.31053351107177    -1.56453490416110
   15     -3.31053351107177     1.56453490416110    -1.56453490416110
   16     -1.56453490416110    -1.56453490416110     3.31053351107177
   17     -1.56453490416110    -3.31053351107177     1.56453490416110
   18     -3.31053351107177    -1.56453490416110     1.56453490416110
   19      3.31053351107177     1.56453490416110     1.56453490416110
   20      1.56453490416110     3.31053351107177     1.56453490416110
   21      1.56453490416110     1.56453490416110     3.31053351107177

 cartesian forces (hartree/bohr) at end:
    1     -0.00000000000000     0.00000000000000    -0.00000000000000
    2     -0.00338300087585     0.00338300087585     0.00338300087585
    3      0.00338300087585    -0.00338300087585     0.00338300087585
    4      0.00338300087585     0.00338300087585    -0.00338300087585
    5     -0.00338300087585    -0.00338300087585    -0.00338300087585
    6      0.00464845148283    -0.00464845148283    -0.00464845148283
    7     -0.00464845148283     0.00464845148283    -0.00464845148283
    8     -0.00464845148283    -0.00464845148283     0.00464845148283
    9      0.00464845148283     0.00464845148283     0.00464845148283
   10      0.00120702930920    -0.00120702930920    -0.00118444254676
   11      0.00120702930920    -0.00118444254676    -0.00120702930920
   12      0.00118444254676    -0.00120702930920    -0.00120702930920
   13     -0.00120702930920     0.00120702930920    -0.00118444254676
   14     -0.00120702930920     0.00118444254676    -0.00120702930920
   15     -0.00118444254676     0.00120702930920    -0.00120702930920
   16     -0.00120702930920    -0.00120702930920     0.00118444254676
   17     -0.00120702930920    -0.00118444254676     0.00120702930920
   18     -0.00118444254676    -0.00120702930920     0.00120702930920
   19      0.00118444254676     0.00120702930920     0.00120702930920
   20      0.00120702930920     0.00118444254676     0.00120702930920
   21      0.00120702930920     0.00120702930920     0.00118444254676
 frms,max,avg= 2.6679594E-03 4.6484515E-03   0.000E+00  0.000E+00  0.000E+00 h/b

 cartesian forces (eV/Angstrom) at end:
    1     -0.00000000000000     0.00000000000000    -0.00000000000000
    2     -0.17396088481739     0.17396088481739     0.17396088481739
    3      0.17396088481739    -0.17396088481739     0.17396088481739
    4      0.17396088481739     0.17396088481739    -0.17396088481739
    5     -0.17396088481739    -0.17396088481739    -0.17396088481739
    6      0.23903296589604    -0.23903296589604    -0.23903296589604
    7     -0.23903296589604     0.23903296589604    -0.23903296589604
    8     -0.23903296589604    -0.23903296589604     0.23903296589604
    9      0.23903296589604     0.23903296589604     0.23903296589604
   10      0.06206793741277    -0.06206793741277    -0.06090647948724
   11      0.06206793741277    -0.06090647948724    -0.06206793741277
   12      0.06090647948724    -0.06206793741277    -0.06206793741277
   13     -0.06206793741277     0.06206793741277    -0.06090647948724
   14     -0.06206793741277     0.06090647948724    -0.06206793741277
   15     -0.06090647948724     0.06206793741277    -0.06206793741277
   16     -0.06206793741277    -0.06206793741277     0.06090647948724
   17     -0.06206793741277    -0.06090647948724     0.06206793741277
   18     -0.06090647948724    -0.06206793741277     0.06206793741277
   19      0.06090647948724     0.06206793741277     0.06206793741277
   20      0.06206793741277     0.06090647948724     0.06206793741277
   21      0.06206793741277     0.06206793741277     0.06090647948724
 frms,max,avg= 1.3719198E-01 2.3903297E-01   0.000E+00  0.000E+00  0.000E+00 e/A
 length scales= 15.000000000000 15.000000000000 15.000000000000 bohr
              =  7.937658128850  7.937658128850  7.937658128850 angstroms
 prteigrs : about to open file sth1_relaxo_DS1_EIG
 Fermi (or HOMO) energy (hartree) =  -0.15729   Average Vxc (hartree)=  -0.19876
 Eigenvalues (hartree) for nkpt=   1  k points:
 kpt#   1, nband=100, wtk=  1.00000, kpt=  0.5000  0.5000  0.5000 (reduced coord)
  -0.93295   -0.90027   -0.90027   -0.90027   -0.49698   -0.42991   -0.42991   -0.42991
  -0.33447   -0.31522   -0.31522   -0.31522   -0.26291   -0.26291   -0.26212   -0.26212
  -0.26212   -0.23566   -0.23566   -0.23566   -0.19054   -0.19054   -0.19054   -0.18006
  -0.18006   -0.15729   -0.15729   -0.15729    0.01175    0.05943    0.05943    0.05943
   0.07994    0.07994    0.07994    0.11032    0.11032    0.11032    0.13169    0.14539
   0.14539    0.14539    0.14913    0.14913    0.15464    0.15464    0.15464    0.15942
   0.19965    0.19965    0.20648    0.20706    0.20706    0.20706    0.22559    0.22559
   0.22559    0.25043    0.25043    0.25043    0.27465    0.27465    0.27465    0.28110
   0.28110    0.28110    0.29591    0.30812    0.30812    0.31459    0.31459    0.31459
   0.34017    0.34017    0.34017    0.37646    0.37646    0.37646    0.38700    0.39200
   0.39200    0.39364    0.39364    0.39364    0.42003    0.43077    0.43077    0.44159
   0.44159    0.44159    0.44958    0.44958    0.44958    0.45076    0.45076    0.45076
   0.48261    0.48261    0.48262    0.49227

--- !EnergyTerms
iteration_state     : {dtset: 1, }
comment             : Components of total free energy in Hartree
kinetic             :  5.25809618877637E+01
hartree             :  7.15633110490814E+01
xc                  : -2.76950647522543E+01
Ewald energy        : -5.03322575371364E+00
psp_core            :  1.04054711858210E+00
local_psp           : -1.80797000934175E+02
non_local_psp       : -3.84018751993495E+00
total_energy        : -9.21806589046504E+01
total_energy_eV     : -2.50836329392217E+03
band_energy         : -2.02467232388249E+01
...


 Cartesian components of stress tensor (hartree/bohr^3)
  sigma(1 1)=  9.91296129E-04  sigma(3 2)=  0.00000000E+00
  sigma(2 2)=  9.91296129E-04  sigma(3 1)=  0.00000000E+00
  sigma(3 3)=  9.91296129E-04  sigma(2 1)=  0.00000000E+00

-Cartesian components of stress tensor (GPa)         [Pressure= -2.9165E+01 GPa]
- sigma(1 1)=  2.91649341E+01  sigma(3 2)=  0.00000000E+00
- sigma(2 2)=  2.91649341E+01  sigma(3 1)=  0.00000000E+00
- sigma(3 3)=  2.91649341E+01  sigma(2 1)=  0.00000000E+00

== END DATASET(S) ==============================================================
================================================================================
  
 -outvars: echo values of variables after computation  --------
            acell      1.5000000000E+01  1.5000000000E+01  1.5000000000E+01 Bohr
              amu      1.00794000E+00  1.59994000E+01  2.80855000E+01
           diemac      1.20000000E+01
             ecut      1.20000000E+01 Hartree
           etotal1    -9.2180658905E+01
            fcart1    -1.0325734976E-20  6.1954409856E-20 -5.1628674880E-20
                      -3.3830008759E-03  3.3830008759E-03  3.3830008759E-03
                       3.3830008759E-03 -3.3830008759E-03  3.3830008759E-03
                       3.3830008759E-03  3.3830008759E-03 -3.3830008759E-03
                      -3.3830008759E-03 -3.3830008759E-03 -3.3830008759E-03
                       4.6484514828E-03 -4.6484514828E-03 -4.6484514828E-03
                      -4.6484514828E-03  4.6484514828E-03 -4.6484514828E-03
                      -4.6484514828E-03 -4.6484514828E-03  4.6484514828E-03
                       4.6484514828E-03  4.6484514828E-03  4.6484514828E-03
                       1.2070293092E-03 -1.2070293092E-03 -1.1844425468E-03
                       1.2070293092E-03 -1.1844425468E-03 -1.2070293092E-03
                       1.1844425468E-03 -1.2070293092E-03 -1.2070293092E-03
                      -1.2070293092E-03  1.2070293092E-03 -1.1844425468E-03
                      -1.2070293092E-03  1.1844425468E-03 -1.2070293092E-03
                      -1.1844425468E-03  1.2070293092E-03 -1.2070293092E-03
                      -1.2070293092E-03 -1.2070293092E-03  1.1844425468E-03
                      -1.2070293092E-03 -1.1844425468E-03  1.2070293092E-03
                      -1.1844425468E-03 -1.2070293092E-03  1.2070293092E-03
                       1.1844425468E-03  1.2070293092E-03  1.2070293092E-03
                       1.2070293092E-03  1.1844425468E-03  1.2070293092E-03
                       1.2070293092E-03  1.2070293092E-03  1.1844425468E-03
-          fftalg         312
           istwfk        1
              ixc       -1012
           jdtset        1
              kpt      5.00000000E-01  5.00000000E-01  5.00000000E-01
         kptrlatt        1    0    0      0    1    0      0    0    1
          kptrlen      1.50000000E+01
P           mkmem           1
            natom          21
            nband         100
           ndtset           1
            ngfft          48      48      48
             nkpt           1
            nstep         100
             nsym          24
           ntypat           3
              occ      2.000000  2.000000  2.000000  2.000000  2.000000  2.000000
                       2.000000  2.000000  2.000000  2.000000  2.000000  2.000000
                       2.000000  2.000000  2.000000  2.000000  2.000000  2.000000
                       2.000000  2.000000  2.000000  2.000000  2.000000  2.000000
                       2.000000  2.000000  2.000000  2.000000  0.000000  0.000000
                       0.000000  0.000000  0.000000  0.000000  0.000000  0.000000
                       0.000000  0.000000  0.000000  0.000000  0.000000  0.000000
                       0.000000  0.000000  0.000000  0.000000  0.000000  0.000000
                       0.000000  0.000000  0.000000  0.000000  0.000000  0.000000
                       0.000000  0.000000  0.000000  0.000000  0.000000  0.000000
                       0.000000  0.000000  0.000000  0.000000  0.000000  0.000000
                       0.000000  0.000000  0.000000  0.000000  0.000000  0.000000
                       0.000000  0.000000  0.000000  0.000000  0.000000  0.000000
                       0.000000  0.000000  0.000000  0.000000  0.000000  0.000000
                       0.000000  0.000000  0.000000  0.000000  0.000000  0.000000
                       0.000000  0.000000  0.000000  0.000000  0.000000  0.000000
                       0.000000  0.000000  0.000000  0.000000
        optforces           1
           shiftk      5.00000000E-01  5.00000000E-01  5.00000000E-01
          spgroup         215
           strten1     9.9129612913E-04  9.9129612913E-04  9.9129612913E-04
                       0.0000000000E+00  0.0000000000E+00  0.0000000000E+00
           symrel      1  0  0   0  1  0   0  0  1      -1  0  0   0  1  0   0  0 -1
                      -1  0  0   0 -1  0   0  0  1       1  0  0   0 -1  0   0  0 -1
                       0  1  0   1  0  0   0  0  1       0 -1  0   1  0  0   0  0 -1
                       0 -1  0  -1  0  0   0  0  1       0  1  0  -1  0  0   0  0 -1
                       0  0  1   1  0  0   0  1  0       0  0 -1   1  0  0   0 -1  0
                       0  0 -1  -1  0  0   0  1  0       0  0  1  -1  0  0   0 -1  0
                       1  0  0   0  0  1   0  1  0      -1  0  0   0  0  1   0 -1  0
                      -1  0  0   0  0 -1   0  1  0       1  0  0   0  0 -1   0 -1  0
                       0  1  0   0  0  1   1  0  0       0 -1  0   0  0  1  -1  0  0
                       0 -1  0   0  0 -1   1  0  0       0  1  0   0  0 -1  -1  0  0
                       0  0  1   0  1  0   1  0  0       0  0 -1   0  1  0  -1  0  0
                       0  0 -1   0 -1  0   1  0  0       0  0  1   0 -1  0  -1  0  0
           tolrff      2.00000000E-02
            typat      3  3  3  3  3  2  2  2  2  1  1  1  1  1  1  1  1  1  1  1
                       1
           xangst      0.0000000000E+00  0.0000000000E+00  0.0000000000E+00
                       1.8804372284E+00 -1.8804372284E+00 -1.8804372284E+00
                      -1.8804372284E+00  1.8804372284E+00 -1.8804372284E+00
                      -1.8804372284E+00 -1.8804372284E+00  1.8804372284E+00
                       1.8804372284E+00  1.8804372284E+00  1.8804372284E+00
                       9.2904949682E-01 -9.2904949682E-01 -9.2904949682E-01
                      -9.2904949682E-01  9.2904949682E-01 -9.2904949682E-01
                      -9.2904949682E-01 -9.2904949682E-01  9.2904949682E-01
                       9.2904949682E-01  9.2904949682E-01  9.2904949682E-01
                       1.5645349042E+00 -1.5645349042E+00 -3.3105335111E+00
                       1.5645349042E+00 -3.3105335111E+00 -1.5645349042E+00
                       3.3105335111E+00 -1.5645349042E+00 -1.5645349042E+00
                      -1.5645349042E+00  1.5645349042E+00 -3.3105335111E+00
                      -1.5645349042E+00  3.3105335111E+00 -1.5645349042E+00
                      -3.3105335111E+00  1.5645349042E+00 -1.5645349042E+00
                      -1.5645349042E+00 -1.5645349042E+00  3.3105335111E+00
                      -1.5645349042E+00 -3.3105335111E+00  1.5645349042E+00
                      -3.3105335111E+00 -1.5645349042E+00  1.5645349042E+00
                       3.3105335111E+00  1.5645349042E+00  1.5645349042E+00
                       1.5645349042E+00  3.3105335111E+00  1.5645349042E+00
                       1.5645349042E+00  1.5645349042E+00  3.3105335111E+00
            xcart      0.0000000000E+00  0.0000000000E+00  0.0000000000E+00
                       3.5535113717E+00 -3.5535113717E+00 -3.5535113717E+00
                      -3.5535113717E+00  3.5535113717E+00 -3.5535113717E+00
                      -3.5535113717E+00 -3.5535113717E+00  3.5535113717E+00
                       3.5535113717E+00  3.5535113717E+00  3.5535113717E+00
                       1.7556491129E+00 -1.7556491129E+00 -1.7556491129E+00
                      -1.7556491129E+00  1.7556491129E+00 -1.7556491129E+00
                      -1.7556491129E+00 -1.7556491129E+00  1.7556491129E+00
                       1.7556491129E+00  1.7556491129E+00  1.7556491129E+00
                       2.9565424942E+00 -2.9565424942E+00 -6.2560016897E+00
                       2.9565424942E+00 -6.2560016897E+00 -2.9565424942E+00
                       6.2560016897E+00 -2.9565424942E+00 -2.9565424942E+00
                      -2.9565424942E+00  2.9565424942E+00 -6.2560016897E+00
                      -2.9565424942E+00  6.2560016897E+00 -2.9565424942E+00
                      -6.2560016897E+00  2.9565424942E+00 -2.9565424942E+00
                      -2.9565424942E+00 -2.9565424942E+00  6.2560016897E+00
                      -2.9565424942E+00 -6.2560016897E+00  2.9565424942E+00
                      -6.2560016897E+00 -2.9565424942E+00  2.9565424942E+00
                       6.2560016897E+00  2.9565424942E+00  2.9565424942E+00
                       2.9565424942E+00  6.2560016897E+00  2.9565424942E+00
                       2.9565424942E+00  2.9565424942E+00  6.2560016897E+00
             xred      0.0000000000E+00  0.0000000000E+00  0.0000000000E+00
                       2.3690075811E-01 -2.3690075811E-01 -2.3690075811E-01
                      -2.3690075811E-01  2.3690075811E-01 -2.3690075811E-01
                      -2.3690075811E-01 -2.3690075811E-01  2.3690075811E-01
                       2.3690075811E-01  2.3690075811E-01  2.3690075811E-01
                       1.1704327419E-01 -1.1704327419E-01 -1.1704327419E-01
                      -1.1704327419E-01  1.1704327419E-01 -1.1704327419E-01
                      -1.1704327419E-01 -1.1704327419E-01  1.1704327419E-01
                       1.1704327419E-01  1.1704327419E-01  1.1704327419E-01
                       1.9710283295E-01 -1.9710283295E-01 -4.1706677931E-01
                       1.9710283295E-01 -4.1706677931E-01 -1.9710283295E-01
                       4.1706677931E-01 -1.9710283295E-01 -1.9710283295E-01
                      -1.9710283295E-01  1.9710283295E-01 -4.1706677931E-01
                      -1.9710283295E-01  4.1706677931E-01 -1.9710283295E-01
                      -4.1706677931E-01  1.9710283295E-01 -1.9710283295E-01
                      -1.9710283295E-01 -1.9710283295E-01  4.1706677931E-01
                      -1.9710283295E-01 -4.1706677931E-01  1.9710283295E-01
                      -4.1706677931E-01 -1.9710283295E-01  1.9710283295E-01
                       4.1706677931E-01  1.9710283295E-01  1.9710283295E-01
                       1.9710283295E-01  4.1706677931E-01  1.9710283295E-01
                       1.9710283295E-01  1.9710283295E-01  4.1706677931E-01
            znucl        1.00000    8.00000   14.00000

================================================================================


- Timing analysis has been suppressed with timopt=0



================================================================================

 Suggested references for the acknowledgment of ABINIT usage.

 The users of ABINIT have little formal obligations with respect to the ABINIT group
 (those specified in the GNU General Public License, http://www.gnu.org/copyleft/gpl.txt).
 However, it is common practice in the scientific literature,
 to acknowledge the efforts of people that have made the research possible.
 In this spirit, please find below suggested citations of work written by ABINIT developers,
 corresponding to implementations inside of ABINIT that you have used in the present run.
 Note also that it will be of great value to readers of publications presenting these results,
 to read papers enabling them to understand the theoretical formalism and details
 of the ABINIT implementation.
 For information on why they are suggested, see also https://docs.abinit.org/theory/acknowledgments.
-
- [1] Libxc: A library of exchange and correlation functionals for density functional theory.
- M.A.L. Marques, M.J.T. Oliveira, T. Burnus, Computer Physics Communications 183, 2227 (2012).
- Comment: to be cited when LibXC is used (negative value of ixc)
- Strong suggestion to cite this paper.
- DOI and bibtex: see https://docs.abinit.org/theory/bibliography/#marques2012
-
- [2] The Abinit project: Impact, environment and recent developments.
- Computer Phys. Comm. 248, 107042 (2020).
- X.Gonze, B. Amadon, G. Antonius, F.Arnardi, L.Baguet, J.-M.Beuken,
- J.Bieder, F.Bottin, J.Bouchet, E.Bousquet, N.Brouwer, F.Bruneval,
- G.Brunin, T.Cavignac, J.-B. Charraud, Wei Chen, M.Cote, S.Cottenier,
- J.Denier, G.Geneste, Ph.Ghosez, M.Giantomassi, Y.Gillet, O.Gingras,
- D.R.Hamann, G.Hautier, Xu He, N.Helbig, N.Holzwarth, Y.Jia, F.Jollet,
- W.Lafargue-Dit-Hauret, K.Lejaeghere, M.A.L.Marques, A.Martin, C.Martins,
- H.P.C. Miranda, F.Naccarato, K. Persson, G.Petretto, V.Planes, Y.Pouillon,
- S.Prokhorenko, F.Ricci, G.-M.Rignanese, A.H.Romero, M.M.Schmitt, M.Torrent,
- M.J.van Setten, B.Van Troeye, M.J.Verstraete, G.Zerah and J.W.Zwanzig
- Comment: the fifth generic paper describing the ABINIT project.
- Note that a version of this paper, that is not formatted for Computer Phys. Comm. 
- is available at https://www.abinit.org/sites/default/files/ABINIT20.pdf .
- The licence allows the authors to put it on the Web.
- DOI and bibtex: see https://docs.abinit.org/theory/bibliography/#gonze2020
-
- [3] Optimized norm-conserving Vanderbilt pseudopotentials.
- D.R. Hamann, Phys. Rev. B 88, 085117 (2013).
- Comment: Some pseudopotential generated using the ONCVPSP code were used.
- DOI and bibtex: see https://docs.abinit.org/theory/bibliography/#hamann2013
-
- [4] ABINIT: Overview, and focus on selected capabilities
- J. Chem. Phys. 152, 124102 (2020).
- A. Romero, D.C. Allan, B. Amadon, G. Antonius, T. Applencourt, L.Baguet,
- J.Bieder, F.Bottin, J.Bouchet, E.Bousquet, F.Bruneval,
- G.Brunin, D.Caliste, M.Cote,
- J.Denier, C. Dreyer, Ph.Ghosez, M.Giantomassi, Y.Gillet, O.Gingras,
- D.R.Hamann, G.Hautier, F.Jollet, G. Jomard,
- A.Martin, 
- H.P.C. Miranda, F.Naccarato, G.Petretto, N.A. Pike, V.Planes,
- S.Prokhorenko, T. Rangel, F.Ricci, G.-M.Rignanese, M.Royo, M.Stengel, M.Torrent,
- M.J.van Setten, B.Van Troeye, M.J.Verstraete, J.Wiktor, J.W.Zwanziger, and X.Gonze.
- Comment: a global overview of ABINIT, with focus on selected capabilities .
- Note that a version of this paper, that is not formatted for J. Chem. Phys 
- is available at https://www.abinit.org/sites/default/files/ABINIT20_JPC.pdf .
- The licence allows the authors to put it on the Web.
- DOI and bibtex: see https://docs.abinit.org/theory/bibliography/#romero2020
-
- [5] Recent developments in the ABINIT software package.
- Computer Phys. Comm. 205, 106 (2016).
- X.Gonze, F.Jollet, F.Abreu Araujo, D.Adams, B.Amadon, T.Applencourt,
- C.Audouze, J.-M.Beuken, J.Bieder, A.Bokhanchuk, E.Bousquet, F.Bruneval
- D.Caliste, M.Cote, F.Dahm, F.Da Pieve, M.Delaveau, M.Di Gennaro,
- B.Dorado, C.Espejo, G.Geneste, L.Genovese, A.Gerossier, M.Giantomassi,
- Y.Gillet, D.R.Hamann, L.He, G.Jomard, J.Laflamme Janssen, S.Le Roux,
- A.Levitt, A.Lherbier, F.Liu, I.Lukacevic, A.Martin, C.Martins,
- M.J.T.Oliveira, S.Ponce, Y.Pouillon, T.Rangel, G.-M.Rignanese,
- A.H.Romero, B.Rousseau, O.Rubel, A.A.Shukri, M.Stankovski, M.Torrent,
- M.J.Van Setten, B.Van Troeye, M.J.Verstraete, D.Waroquier, J.Wiktor,
- B.Xu, A.Zhou, J.W.Zwanziger.
- Comment: the fourth generic paper describing the ABINIT project.
- Note that a version of this paper, that is not formatted for Computer Phys. Comm. 
- is available at https://www.abinit.org/sites/default/files/ABINIT16.pdf .
- The licence allows the authors to put it on the Web.
- DOI and bibtex: see https://docs.abinit.org/theory/bibliography/#gonze2016
-
- Proc.   0 individual time (sec): cpu=        107.3  wall=         56.1

================================================================================

 Calculation completed.
.Delivered   0 WARNINGs and   0 COMMENTs to log file.
+Overall time at end (sec) : cpu=        270.9  wall=        224.3
