
.Version 9.2.2 of ABINIT 
.(MPI version, prepared for a x86_64_darwin19.6.0_gnu10.2 computer) 

.Copyright (C) 1998-2020 ABINIT group . 
 ABINIT comes with ABSOLUTELY NO WARRANTY.
 It is free software, and you are welcome to redistribute it
 under certain conditions (GNU General Public License,
 see ~abinit/COPYING or http://www.gnu.org/copyleft/gpl.txt).

 ABINIT is a project of the Universite Catholique de Louvain,
 Corning Inc. and other collaborators, see ~abinit/doc/developers/contributors.txt .
 Please read https://docs.abinit.org/theory/acknowledgments for suggested
 acknowledgments of the ABINIT effort.
 For more information, see https://www.abinit.org .

.Starting date : Thu 11 Mar 2021.
- ( at 21h25 )
  
- input  file    -> sth1_relax.in
- output file    -> sth1_relax.abo
- root for input  files -> sth1_relaxi
- root for output files -> sth1_relaxo


 DATASET    1 : space group P2 (#  3); Bravais mP (primitive monocl.)
================================================================================
 Values of the parameters that define the memory need for DATASET  1.
     intxc =       0    ionmov =       2      iscf =       7    lmnmax =       6
     lnmax =       6     mgfft =      48  mpssoang =       3    mqgrid =    3001
     natom =       7  nloc_mem =       1    nspden =       1   nspinor =       1
    nsppol =       1      nsym =       2    n1xccc =    2501    ntypat =       3
    occopt =       1   xclevel =       1
-    mband =          20        mffmem =           1         mkmem =           1
       mpw =        6776          nfft =      110592          nkpt =           1
================================================================================
P This job should need less than                      37.462 Mbytes of memory.
  Rough estimation (10% accuracy) of disk space for files :
_ WF disk file :      2.070 Mbytes ; DEN or POT disk file :      0.846 Mbytes.
================================================================================

--------------------------------------------------------------------------------
------------- Echo of variables that govern the present computation ------------
--------------------------------------------------------------------------------
-
- outvars: echo of selected default values                                      
-   iomode0 =  0 , fftalg0 =312 , wfoptalg0 =  0
-
- outvars: echo of global parameters not present in the input file              
-  max_nthreads =    8
-
 -outvars: echo values of preprocessed input variables --------
            acell      1.5000000000E+01  1.5000000000E+01  1.5000000000E+01 Bohr
              amu      1.00794000E+00  1.59994000E+01  2.80855000E+01
           diemac      1.20000000E+01
             ecut      1.20000000E+01 Hartree
-          fftalg         312
           ionmov           2
           istwfk        1
              ixc       -1012
           jdtset        1
              kpt      5.00000000E-01  5.00000000E-01  5.00000000E-01
         kptrlatt        1    0    0      0    1    0      0    0    1
          kptrlen      1.50000000E+04
P           mkmem           1
            natom           7
            nband          20
           ndtset           1
            ngfft          48      48      48
             nkpt           1
            nstep         100
             nsym           2
            ntime         100
           ntypat           3
              occ      2.000000  2.000000  2.000000  2.000000  2.000000  2.000000
                       2.000000  2.000000  2.000000  2.000000  0.000000  0.000000
                       0.000000  0.000000  0.000000  0.000000  0.000000  0.000000
                       0.000000  0.000000
        optforces           1
           shiftk      5.00000000E-01  5.00000000E-01  5.00000000E-01
          spgroup           3
           symrel      1  0  0   0  1  0   0  0  1      -1  0  0   0  1  0   0  0 -1
           tolrff      2.00000000E-02
            typat      3  2  2  1  1  1  1
           xangst      0.0000000000E+00 -6.6622102815E-01  0.0000000000E+00
                      -1.2277194056E+00 -1.8208787050E+00  0.0000000000E+00
                       1.2277194056E+00 -1.8208787050E+00  0.0000000000E+00
                       0.0000000000E+00 -2.6458860429E-01 -7.4084809203E-01
                       0.0000000000E+00 -2.6458860429E-01  7.4084809203E-01
                      -1.2277194056E+00 -1.8208787050E+00  1.0583544172E+00
                       1.2277194056E+00 -1.8208787050E+00 -1.0583544172E+00
            xcart      0.0000000000E+00 -1.2589752872E+00  0.0000000000E+00
                      -2.3200534445E+00 -3.4409620737E+00  0.0000000000E+00
                       2.3200534445E+00 -3.4409620737E+00  0.0000000000E+00
                       0.0000000000E+00 -5.0000000000E-01 -1.4000000000E+00
                       0.0000000000E+00 -5.0000000000E-01  1.4000000000E+00
                      -2.3200534445E+00 -3.4409620737E+00  2.0000000000E+00
                       2.3200534445E+00 -3.4409620737E+00 -2.0000000000E+00
             xred      0.0000000000E+00 -8.3931685811E-02  0.0000000000E+00
                      -1.5467022964E-01 -2.2939747158E-01  0.0000000000E+00
                       1.5467022964E-01 -2.2939747158E-01  0.0000000000E+00
                       0.0000000000E+00 -3.3333333333E-02 -9.3333333333E-02
                       0.0000000000E+00 -3.3333333333E-02  9.3333333333E-02
                      -1.5467022964E-01 -2.2939747158E-01  1.3333333333E-01
                       1.5467022964E-01 -2.2939747158E-01 -1.3333333333E-01
            znucl        1.00000    8.00000   14.00000

================================================================================

 chkinp: Checking input parameters for consistency, jdtset=   1.

================================================================================
== DATASET  1 ==================================================================
-   mpi_nproc: 4, omp_nthreads: 8 (-1 if OMP is not activated)
-    --> not optimal distribution: autoparal keyword recommended in input file <--


--- !DatasetInfo
iteration_state: {dtset: 1, }
dimensions: {natom: 7, nkpt: 1, mband: 20, nsppol: 1, nspinor: 1, nspden: 1, mpw: 6776, }
cutoff_energies: {ecut:  12.0, pawecutdg:  -1.0, }
electrons: {nelect:   2.00000000E+01, charge:   0.00000000E+00, occopt:   1.00000000E+00, tsmear:   1.00000000E-02, }
meta: {optdriver: 0, ionmov: 2, optcell: 0, iscf: 7, paral_kgb: 0, }
...

 Real(R)+Recip(G) space primitive vectors, cartesian coordinates (Bohr,Bohr^-1):
 R(1)= 15.0000000  0.0000000  0.0000000  G(1)=  0.0666667  0.0000000  0.0000000
 R(2)=  0.0000000 15.0000000  0.0000000  G(2)=  0.0000000  0.0666667  0.0000000
 R(3)=  0.0000000  0.0000000 15.0000000  G(3)=  0.0000000  0.0000000  0.0666667
 Unit cell volume ucvol=  3.3750000E+03 bohr^3
 Angles (23,13,12)=  9.00000000E+01  9.00000000E+01  9.00000000E+01 degrees

 getcut: wavevector=  0.0000  0.0000  0.0000  ngfft=  48  48  48
         ecut(hartree)=     12.000   => boxcut(ratio)=   2.05208

--- Pseudopotential description ------------------------------------------------
- pspini: atom type   1  psp file is /Users/ali/Desktop/JDFTX/build-withlibxc/pseudopotentials/H.psp8
- pspatm: opening atomic psp file    /Users/ali/Desktop/JDFTX/build-withlibxc/pseudopotentials/H.psp8
- H     ONCVPSP-3.3.0  r_core=   1.00957   0.90680
-  1.00000   1.00000    171101                znucl, zion, pspdat
    8   -1012    1    4       300   0.00000   pspcod,pspxc,lmax,lloc,mmax,r2well
    2.99000000000000    0.00000000000000    0.00000000000000   rchrg,fchrg,qchrg
     nproj     2     1
     extension_switch     1
  pspatm : epsatm=    0.35491505
         --- l  ekb(1:nproj) -->
             0   -1.665338   -0.519510
             1   -0.275071
 pspatm: atomic psp has been read  and splines computed

- pspini: atom type   2  psp file is /Users/ali/Desktop/JDFTX/build-withlibxc/pseudopotentials/O.psp8
- pspatm: opening atomic psp file    /Users/ali/Desktop/JDFTX/build-withlibxc/pseudopotentials/O.psp8
- O     ONCVPSP-3.3.0  r_core=   1.35509   1.45563   1.35509
-  8.00000   6.00000    171101                znucl, zion, pspdat
    8   -1012    2    4       600   0.00000   pspcod,pspxc,lmax,lloc,mmax,r2well
    5.99000000000000    4.00000000000000    0.00000000000000   rchrg,fchrg,qchrg
     nproj     2     2     1
     extension_switch     1
  pspatm : epsatm=    6.27558977
         --- l  ekb(1:nproj) -->
             0    6.026028    0.816167
             1   -4.798959   -1.172522
             2   -1.033686
 pspatm: atomic psp has been read  and splines computed

- pspini: atom type   3  psp file is /Users/ali/Desktop/JDFTX/build-withlibxc/pseudopotentials/Si.psp8
- pspatm: opening atomic psp file    /Users/ali/Desktop/JDFTX/build-withlibxc/pseudopotentials/Si.psp8
- Si    ONCVPSP-3.3.0  r_core=   1.60303   1.72197   1.91712
- 14.00000   4.00000    171102                znucl, zion, pspdat
    8   -1012    2    4       600   0.00000   pspcod,pspxc,lmax,lloc,mmax,r2well
    5.99000000000000    4.00000000000000    0.00000000000000   rchrg,fchrg,qchrg
     nproj     2     2     2
     extension_switch     1
  pspatm : epsatm=    6.67004110
         --- l  ekb(1:nproj) -->
             0    5.565958    0.856966
             1    2.726111    0.629828
             2   -2.124804   -0.444604
 pspatm: atomic psp has been read  and splines computed

   4.12817616E+02                                ecore*ucvol(ha*bohr**3)
--------------------------------------------------------------------------------

_setup2: Arith. and geom. avg. npw (full set) are    6776.000    6776.000

================================================================================

=== [ionmov= 2] Broyden-Fletcher-Goldfard-Shanno method (forces)            
================================================================================

--- Iteration: (  1/100) Internal Cycle: (1/1)
--------------------------------------------------------------------------------

---SELF-CONSISTENT-FIELD CONVERGENCE--------------------------------------------

--- !BeginCycle
iteration_state: {dtset: 1, itime: 1, icycle: 1, }
solver: {iscf: 7, nstep: 100, nline: 4, wfoptalg: 0, }
tolerances: {tolrff: 2.00E-02, }
...

     iter   Etot(hartree)      deltaE(h)  residm     vres2    diffor    maxfor
 ETOT  1  -37.536714003624    -3.754E+01 1.915E-02 4.117E+02 1.275E+00 1.275E+00
 ETOT  2  -37.670554919538    -1.338E-01 6.984E-05 4.377E+01 2.838E-01 9.912E-01
 ETOT  3  -37.678359647776    -7.805E-03 9.812E-04 1.501E+01 1.630E-01 1.154E+00
 ETOT  4  -37.686951380387    -8.592E-03 1.976E-04 7.789E+00 9.407E-02 1.060E+00
 ETOT  5  -37.688409703782    -1.458E-03 2.581E-05 9.964E-01 2.099E-02 1.081E+00
 ETOT  6  -37.688450577435    -4.087E-05 6.242E-06 2.339E-01 3.640E-03 1.078E+00

 At SCF step    6, forces are sufficiently converged : 
  for the second time, max diff in force=  3.640E-03 is less than < tolrff=  2.000E-02 times max force

 Cartesian components of stress tensor (hartree/bohr^3)
  sigma(1 1)=  4.53248299E-04  sigma(3 2)=  0.00000000E+00
  sigma(2 2)=  2.46962128E-04  sigma(3 1)=  1.58845071E-05
  sigma(3 3)= -3.36338831E-04  sigma(2 1)=  0.00000000E+00


--- !ResultsGS
iteration_state: {dtset: 1, itime: 1, icycle: 1, }
comment   : Summary of ground state results
lattice_vectors:
- [ 15.0000000,   0.0000000,   0.0000000, ]
- [  0.0000000,  15.0000000,   0.0000000, ]
- [  0.0000000,   0.0000000,  15.0000000, ]
lattice_lengths: [  15.00000,   15.00000,   15.00000, ]
lattice_angles: [ 90.000,  90.000,  90.000, ] # degrees, (23, 13, 12)
lattice_volume:   3.3750000E+03
convergence: {deltae: -4.087E-05, res2:  2.339E-01, residm:  6.242E-06, diffor:  3.640E-03, }
etotal    :  -3.76884506E+01
entropy   :   0.00000000E+00
fermie    :  -2.15277811E-01
cartesian_stress_tensor: # hartree/bohr^3
- [  4.53248299E-04,   0.00000000E+00,   1.58845071E-05, ]
- [  0.00000000E+00,   2.46962128E-04,   0.00000000E+00, ]
- [  1.58845071E-05,   0.00000000E+00,  -3.36338831E-04, ]
pressure_GPa:  -3.5685E+00
xred      :
- [  0.0000E+00,  -8.3932E-02,   0.0000E+00, Si]
- [ -1.5467E-01,  -2.2940E-01,   0.0000E+00,  O]
- [  1.5467E-01,  -2.2940E-01,   0.0000E+00,  O]
- [  0.0000E+00,  -3.3333E-02,  -9.3333E-02,  H]
- [  0.0000E+00,  -3.3333E-02,   9.3333E-02,  H]
- [ -1.5467E-01,  -2.2940E-01,   1.3333E-01,  H]
- [  1.5467E-01,  -2.2940E-01,  -1.3333E-01,  H]
cartesian_forces: # hartree/bohr
- [ -0.00000000E+00,  -1.07756192E+00,  -0.00000000E+00, ]
- [ -1.79776086E-02,   1.21045583E-02,   1.22121919E-02, ]
- [  1.79776086E-02,   1.21045583E-02,  -1.22121919E-02, ]
- [ -1.71938256E-03,   5.40093737E-01,  -9.72657046E-01, ]
- [  1.71938256E-03,   5.40093737E-01,   9.72657046E-01, ]
- [ -1.30521538E-02,  -1.34173348E-02,  -3.19393132E-03, ]
- [  1.30521538E-02,  -1.34173348E-02,   3.19393132E-03, ]
force_length_stats: {min:   1.89890703E-02, max:   1.11254929E+00, mean:   4.84341734E-01, }
...

 Integrated electronic density in atomic spheres:
 ------------------------------------------------
 Atom  Sphere_radius  Integrated_density
    1        2.00000          3.30395254
    2        2.00000          6.21599555
    3        2.00000          6.21599555
    4        2.00000          2.06819598
    5        2.00000          2.06819598
    6        2.00000          2.86000910
    7        2.00000          2.86000910

---OUTPUT-----------------------------------------------------------------------

 Cartesian coordinates (xcart) [bohr]
  0.00000000000000E+00 -1.25897528716486E+00  0.00000000000000E+00
 -2.32005344452720E+00 -3.44096207365056E+00  0.00000000000000E+00
  2.32005344452722E+00 -3.44096207365056E+00  0.00000000000000E+00
  0.00000000000000E+00 -5.00000000000000E-01 -1.40000000000000E+00
  0.00000000000000E+00 -5.00000000000000E-01  1.40000000000000E+00
 -2.32005344452720E+00 -3.44096207365056E+00  2.00000000000000E+00
  2.32005344452722E+00 -3.44096207365056E+00 -2.00000000000000E+00
 Reduced coordinates (xred)
  0.00000000000000E+00 -8.39316858109907E-02  0.00000000000000E+00
 -1.54670229635147E-01 -2.29397471576704E-01  0.00000000000000E+00
  1.54670229635148E-01 -2.29397471576704E-01  0.00000000000000E+00
  0.00000000000000E+00 -3.33333333333333E-02 -9.33333333333333E-02
  0.00000000000000E+00 -3.33333333333333E-02  9.33333333333333E-02
 -1.54670229635147E-01 -2.29397471576704E-01  1.33333333333333E-01
  1.54670229635148E-01 -2.29397471576704E-01 -1.33333333333333E-01
 Cartesian forces (fcart) [Ha/bohr]; max,rms= 1.07756E+00 4.16255E-01 (free atoms)
 -0.00000000000000E+00 -1.07756192104376E+00 -0.00000000000000E+00
 -1.79776086340561E-02  1.21045583381124E-02  1.22121919474172E-02
  1.79776086340561E-02  1.21045583381124E-02 -1.22121919474172E-02
 -1.71938255804971E-03  5.40093736976157E-01 -9.72657045848686E-01
  1.71938255804971E-03  5.40093736976157E-01  9.72657045848686E-01
 -1.30521538101112E-02 -1.34173347923883E-02 -3.19393132254542E-03
  1.30521538101112E-02 -1.34173347923883E-02  3.19393132254542E-03
 Reduced forces (fred)
  0.00000000000000E+00  1.61634288156564E+01  0.00000000000000E+00
  2.69664129510842E-01 -1.81568375071686E-01 -1.83182879211258E-01
 -2.69664129510842E-01 -1.81568375071686E-01  1.83182879211258E-01
  2.57907383707457E-02 -8.10140605464236E+00  1.45898556877303E+01
 -2.57907383707457E-02 -8.10140605464236E+00 -1.45898556877303E+01
  1.95782307151668E-01  2.01260021885825E-01  4.79089698381814E-02
 -1.95782307151668E-01  2.01260021885825E-01 -4.79089698381814E-02
 Total energy (etotal) [Ha]= -3.76884505774348E+01

--- Iteration: (  2/100) Internal Cycle: (1/1)
--------------------------------------------------------------------------------

---SELF-CONSISTENT-FIELD CONVERGENCE--------------------------------------------

--- !BeginCycle
iteration_state: {dtset: 1, itime: 2, icycle: 1, }
solver: {iscf: 7, nstep: 100, nline: 4, wfoptalg: 0, }
tolerances: {tolrff: 2.00E-02, }
...

     iter   Etot(hartree)      deltaE(h)  residm     vres2    diffor    maxfor
 ETOT  1  -37.587315734576    -3.759E+01 2.443E-04 1.656E+03 1.095E+00 2.173E+00
 ETOT  2  -38.213051275791    -6.257E-01 1.049E-04 2.636E+02 2.794E+00 6.216E-01
 ETOT  3  -38.262626708704    -4.958E-02 3.608E-03 8.014E+01 3.276E-01 3.598E-01
 ETOT  4  -38.274776600936    -1.215E-02 4.284E-04 5.061E+01 6.001E-02 3.540E-01
 ETOT  5  -38.281959713845    -7.183E-03 1.980E-04 9.452E+00 1.096E-01 4.636E-01
 ETOT  6  -38.282218167850    -2.585E-04 2.555E-05 1.361E+00 7.493E-03 4.570E-01
 ETOT  7  -38.282230437060    -1.227E-05 3.091E-03 2.756E-01 3.985E-03 4.610E-01

 At SCF step    7, forces are sufficiently converged : 
  for the second time, max diff in force=  3.985E-03 is less than < tolrff=  2.000E-02 times max force

 Cartesian components of stress tensor (hartree/bohr^3)
  sigma(1 1)= -5.86777950E-06  sigma(3 2)=  0.00000000E+00
  sigma(2 2)=  4.53935158E-04  sigma(3 1)=  3.62936014E-05
  sigma(3 3)=  4.96561049E-04  sigma(2 1)=  0.00000000E+00


--- !ResultsGS
iteration_state: {dtset: 1, itime: 2, icycle: 1, }
comment   : Summary of ground state results
lattice_vectors:
- [ 15.0000000,   0.0000000,   0.0000000, ]
- [  0.0000000,  15.0000000,   0.0000000, ]
- [  0.0000000,   0.0000000,  15.0000000, ]
lattice_lengths: [  15.00000,   15.00000,   15.00000, ]
lattice_angles: [ 90.000,  90.000,  90.000, ] # degrees, (23, 13, 12)
lattice_volume:   3.3750000E+03
convergence: {deltae: -1.227E-05, res2:  2.756E-01, residm:  3.091E-03, diffor:  3.985E-03, }
etotal    :  -3.82822304E+01
entropy   :   0.00000000E+00
fermie    :  -1.91190315E-01
cartesian_stress_tensor: # hartree/bohr^3
- [ -5.86777950E-06,   0.00000000E+00,   3.62936014E-05, ]
- [  0.00000000E+00,   4.53935158E-04,   0.00000000E+00, ]
- [  3.62936014E-05,   0.00000000E+00,   4.96561049E-04, ]
pressure_GPa:  -9.2640E+00
xred      :
- [  0.0000E+00,  -1.5577E-01,   0.0000E+00, Si]
- [ -1.5587E-01,  -2.2859E-01,   8.1415E-04,  O]
- [  1.5587E-01,  -2.2859E-01,  -8.1415E-04,  O]
- [ -1.1463E-04,   2.6729E-03,  -1.5818E-01,  H]
- [  1.1463E-04,   2.6729E-03,   1.5818E-01,  H]
- [ -1.5554E-01,  -2.3029E-01,   1.3312E-01,  H]
- [  1.5554E-01,  -2.3029E-01,  -1.3312E-01,  H]
cartesian_forces: # hartree/bohr
- [ -0.00000000E+00,   4.61013780E-01,  -0.00000000E+00, ]
- [ -3.57514511E-01,  -1.83507457E-01,   9.58567109E-03, ]
- [  3.57514511E-01,  -1.83507457E-01,  -9.58567109E-03, ]
- [  1.03363023E-04,  -3.70722586E-02,   1.65502549E-02, ]
- [ -1.03363023E-04,  -3.70722586E-02,  -1.65502549E-02, ]
- [ -2.68535457E-02,  -9.92717393E-03,   1.33479103E-02, ]
- [  2.68535457E-02,  -9.92717393E-03,  -1.33479103E-02, ]
force_length_stats: {min:   3.15884221E-02, max:   4.61013780E-01, mean:   2.01333929E-01, }
...

 Integrated electronic density in atomic spheres:
 ------------------------------------------------
 Atom  Sphere_radius  Integrated_density
    1        2.00000          3.48851085
    2        2.00000          6.52634167
    3        2.00000          6.52634167
    4        2.00000          1.22009420
    5        2.00000          1.22009420
    6        2.00000          2.98651836
    7        2.00000          2.98651836

---OUTPUT-----------------------------------------------------------------------

 Cartesian coordinates (xcart) [bohr]
  0.00000000000000E+00 -2.33653720820862E+00  0.00000000000000E+00
 -2.33803105316126E+00 -3.42885751531245E+00  1.22121919474172E-02
  2.33803105316128E+00 -3.42885751531245E+00 -1.22121919474172E-02
 -1.71938255804971E-03  4.00937369761570E-02 -2.37265704584869E+00
  1.71938255804971E-03  4.00937369761570E-02  2.37265704584869E+00
 -2.33310559833731E+00 -3.45437940844295E+00  1.99680606867745E+00
  2.33310559833733E+00 -3.45437940844295E+00 -1.99680606867745E+00
 Reduced coordinates (xred)
  0.00000000000000E+00 -1.55769147213908E-01  0.00000000000000E+00
 -1.55868736877417E-01 -2.28590501020830E-01  8.14146129827812E-04
  1.55868736877418E-01 -2.28590501020830E-01 -8.14146129827812E-04
 -1.14625503869981E-04  2.67291579841047E-03 -1.58177136389912E-01
  1.14625503869981E-04  2.67291579841047E-03  1.58177136389912E-01
 -1.55540373222487E-01 -2.30291960562863E-01  1.33120404578497E-01
  1.55540373222489E-01 -2.30291960562863E-01 -1.33120404578497E-01
 Cartesian forces (fcart) [Ha/bohr]; max,rms= 4.61014E-01 1.60504E-01 (free atoms)
 -0.00000000000000E+00  4.61013779939968E-01 -0.00000000000000E+00
 -3.57514510848008E-01 -1.83507457419456E-01  9.58567108704962E-03
  3.57514510848008E-01 -1.83507457419456E-01 -9.58567108704962E-03
  1.03363022941055E-04 -3.70722586193099E-02  1.65502548979250E-02
 -1.03363022941055E-04 -3.70722586193099E-02 -1.65502548979250E-02
 -2.68535457180599E-02 -9.92717393121773E-03  1.33479102629374E-02
  2.68535457180599E-02 -9.92717393121773E-03 -1.33479102629374E-02
 Reduced forces (fred)
 -0.00000000000000E+00 -6.91520669909951E+00 -0.00000000000000E+00
  5.36271766272012E+00  2.75261186129184E+00 -1.43785066305744E-01
 -5.36271766272012E+00  2.75261186129184E+00  1.43785066305744E-01
 -1.55044534411582E-03  5.56083879289648E-01 -2.48253823468876E-01
  1.55044534411582E-03  5.56083879289648E-01  2.48253823468876E-01
  4.02803185770898E-01  1.48907608968266E-01 -2.00218653944061E-01
 -4.02803185770898E-01  1.48907608968266E-01  2.00218653944061E-01
 Total energy (etotal) [Ha]= -3.82822304370600E+01

 Difference of energy with previous step (new-old):
           Absolute (Ha)=-5.93780E-01
           Relative     =-1.56318E-02

--- Iteration: (  3/100) Internal Cycle: (1/1)
--------------------------------------------------------------------------------

---SELF-CONSISTENT-FIELD CONVERGENCE--------------------------------------------

--- !BeginCycle
iteration_state: {dtset: 1, itime: 3, icycle: 1, }
solver: {iscf: 7, nstep: 100, nline: 4, wfoptalg: 0, }
tolerances: {tolrff: 2.00E-02, }
...

     iter   Etot(hartree)      deltaE(h)  residm     vres2    diffor    maxfor
 ETOT  1  -37.796413065124    -3.780E+01 2.997E-04 1.273E+03 1.203E+00 1.664E+00
 ETOT  2  -38.229682652137    -4.333E-01 8.680E-04 1.809E+02 1.825E+00 2.058E-01
 ETOT  3  -38.420468040972    -1.908E-01 6.513E-03 9.162E+01 4.153E-01 2.545E-01
 ETOT  4  -38.478234470896    -5.777E-02 6.898E-04 1.564E+01 8.541E-02 1.691E-01
 ETOT  5  -38.479281410756    -1.047E-03 1.190E-04 3.004E+00 4.549E-02 1.236E-01
 ETOT  6  -38.479389775562    -1.084E-04 7.632E-05 4.794E-01 4.469E-03 1.191E-01
 ETOT  7  -38.479395663506    -5.888E-06 2.273E-05 9.069E-02 9.855E-04 1.194E-01
 ETOT  8  -38.479397121718    -1.458E-06 2.229E-05 1.315E-02 9.647E-04 1.185E-01

 At SCF step    8, forces are sufficiently converged : 
  for the second time, max diff in force=  9.647E-04 is less than < tolrff=  2.000E-02 times max force

 Cartesian components of stress tensor (hartree/bohr^3)
  sigma(1 1)=  4.25533178E-04  sigma(3 2)=  0.00000000E+00
  sigma(2 2)=  5.20300997E-04  sigma(3 1)=  2.76359049E-05
  sigma(3 3)=  4.89125208E-04  sigma(2 1)=  0.00000000E+00


--- !ResultsGS
iteration_state: {dtset: 1, itime: 3, icycle: 1, }
comment   : Summary of ground state results
lattice_vectors:
- [ 15.0000000,   0.0000000,   0.0000000, ]
- [  0.0000000,  15.0000000,   0.0000000, ]
- [  0.0000000,   0.0000000,  15.0000000, ]
lattice_lengths: [  15.00000,   15.00000,   15.00000, ]
lattice_angles: [ 90.000,  90.000,  90.000, ] # degrees, (23, 13, 12)
lattice_volume:   3.3750000E+03
convergence: {deltae: -1.458E-06, res2:  1.315E-02, residm:  2.229E-05, diffor:  9.647E-04, }
etotal    :  -3.84793971E+01
entropy   :   0.00000000E+00
fermie    :  -2.33431306E-01
cartesian_stress_tensor: # hartree/bohr^3
- [  4.25533178E-04,   0.00000000E+00,   2.76359049E-05, ]
- [  0.00000000E+00,   5.20300997E-04,   0.00000000E+00, ]
- [  2.76359049E-05,   0.00000000E+00,   4.89125208E-04, ]
pressure_GPa:  -1.4073E+01
xred      :
- [  0.0000E+00,  -1.3588E-01,   0.0000E+00, Si]
- [ -1.7664E-01,  -2.3912E-01,   1.4445E-03,  O]
- [  1.7664E-01,  -2.3912E-01,  -1.4445E-03,  O]
- [ -1.1942E-04,   3.9129E-03,  -1.6331E-01,  H]
- [  1.1942E-04,   3.9129E-03,   1.6331E-01,  H]
- [ -1.5717E-01,  -2.3095E-01,   1.3387E-01,  H]
- [  1.5717E-01,  -2.3095E-01,  -1.3387E-01,  H]
cartesian_forces: # hartree/bohr
- [ -0.00000000E+00,   1.18467504E-01,  -0.00000000E+00, ]
- [ -1.78923208E-02,  -1.32675595E-02,   9.53093512E-03, ]
- [  1.78923208E-02,  -1.32675595E-02,  -9.53093512E-03, ]
- [  3.67366412E-04,  -3.15992899E-02,   2.32905206E-02, ]
- [ -3.67366412E-04,  -3.15992899E-02,  -2.32905206E-02, ]
- [ -2.62810407E-02,  -1.43669025E-02,   9.44196068E-03, ]
- [  2.62810407E-02,  -1.43669025E-02,  -9.44196068E-03, ]
force_length_stats: {min:   2.42281242E-02, max:   1.18467504E-01, mean:   4.40352417E-02, }
...

 Integrated electronic density in atomic spheres:
 ------------------------------------------------
 Atom  Sphere_radius  Integrated_density
    1        2.00000          2.17235777
    2        2.00000          6.20546201
    3        2.00000          6.20546201
    4        2.00000          1.24401453
    5        2.00000          1.24401453
    6        2.00000          2.89102232
    7        2.00000          2.89102232

---OUTPUT-----------------------------------------------------------------------

 Cartesian coordinates (xcart) [bohr]
  0.00000000000000E+00 -2.03817908003400E+00  0.00000000000000E+00
 -2.64958818483981E+00 -3.58677190635148E+00  2.16674796903251E-02
  2.64958818483983E+00 -3.58677190635148E+00 -2.16674796903251E-02
 -1.79129772480252E-03  5.86935423940300E-02 -2.44967490104744E+00
  1.79129772480252E-03  5.86935423940300E-02  2.44967490104744E+00
 -2.35760636589691E+00 -3.46424388690910E+00  2.00807509174752E+00
  2.35760636589693E+00 -3.46424388690910E+00 -2.00807509174752E+00
 Reduced coordinates (xred)
  0.00000000000000E+00 -1.35878605335600E-01  0.00000000000000E+00
 -1.76639212322654E-01 -2.39118127090098E-01  1.44449864602167E-03
  1.76639212322655E-01 -2.39118127090098E-01 -1.44449864602167E-03
 -1.19419848320168E-04  3.91290282626866E-03 -1.63311660069829E-01
  1.19419848320168E-04  3.91290282626866E-03  1.63311660069829E-01
 -1.57173757726461E-01 -2.30949592460607E-01  1.33871672783168E-01
  1.57173757726462E-01 -2.30949592460607E-01 -1.33871672783168E-01
 Cartesian forces (fcart) [Ha/bohr]; max,rms= 1.18468E-01 3.10631E-02 (free atoms)
 -0.00000000000000E+00  1.18467503799294E-01 -0.00000000000000E+00
 -1.78923208162043E-02 -1.32675594972488E-02  9.53093512156295E-03
  1.78923208162043E-02 -1.32675594972488E-02 -9.53093512156295E-03
  3.67366412141038E-04 -3.15992899039729E-02  2.32905206418608E-02
 -3.67366412141038E-04 -3.15992899039729E-02 -2.32905206418608E-02
 -2.62810406657914E-02 -1.43669024984251E-02  9.44196067688441E-03
  2.62810406657914E-02 -1.43669024984251E-02 -9.44196067688441E-03
 Reduced forces (fred)
 -0.00000000000000E+00 -1.77701255698941E+00 -0.00000000000000E+00
  2.68384812243065E-01  1.99013392458732E-01 -1.42964026823444E-01
 -2.68384812243065E-01  1.99013392458732E-01  1.42964026823444E-01
 -5.51049618211557E-03  4.73989348559594E-01 -3.49357809627911E-01
  5.51049618211557E-03  4.73989348559594E-01  3.49357809627911E-01
  3.94215609986872E-01  2.15503537476377E-01 -1.41629410153266E-01
 -3.94215609986872E-01  2.15503537476377E-01  1.41629410153266E-01
 Total energy (etotal) [Ha]= -3.84793971217185E+01

 Difference of energy with previous step (new-old):
           Absolute (Ha)=-1.97167E-01
           Relative     =-5.13712E-03

--- Iteration: (  4/100) Internal Cycle: (1/1)
--------------------------------------------------------------------------------

---SELF-CONSISTENT-FIELD CONVERGENCE--------------------------------------------

--- !BeginCycle
iteration_state: {dtset: 1, itime: 4, icycle: 1, }
solver: {iscf: 7, nstep: 100, nline: 4, wfoptalg: 0, }
tolerances: {tolrff: 2.00E-02, }
...

     iter   Etot(hartree)      deltaE(h)  residm     vres2    diffor    maxfor
 ETOT  1  -38.474122293335    -3.847E+01 9.337E-05 4.204E+01 2.564E-01 3.749E-01
 ETOT  2  -38.485086321471    -1.096E-02 2.623E-05 7.224E+00 3.599E-01 3.540E-02
 ETOT  3  -38.493799453653    -8.713E-03 2.373E-04 3.386E+00 8.827E-02 1.033E-01
 ETOT  4  -38.495282676764    -1.483E-03 8.648E-05 6.819E-01 1.206E-02 9.121E-02
 ETOT  5  -38.495328526664    -4.585E-05 3.859E-05 1.291E-01 1.143E-02 7.978E-02
 ETOT  6  -38.495332947870    -4.421E-06 9.538E-05 1.604E-02 6.819E-04 7.909E-02
 ETOT  7  -38.495333095128    -1.473E-07 3.033E-05 2.909E-03 1.921E-04 7.919E-02

 At SCF step    7, forces are sufficiently converged : 
  for the second time, max diff in force=  1.921E-04 is less than < tolrff=  2.000E-02 times max force

 Cartesian components of stress tensor (hartree/bohr^3)
  sigma(1 1)=  4.56220648E-04  sigma(3 2)=  0.00000000E+00
  sigma(2 2)=  5.19199897E-04  sigma(3 1)=  2.41378516E-05
  sigma(3 3)=  4.86365832E-04  sigma(2 1)=  0.00000000E+00


--- !ResultsGS
iteration_state: {dtset: 1, itime: 4, icycle: 1, }
comment   : Summary of ground state results
lattice_vectors:
- [ 15.0000000,   0.0000000,   0.0000000, ]
- [  0.0000000,  15.0000000,   0.0000000, ]
- [  0.0000000,   0.0000000,  15.0000000, ]
lattice_lengths: [  15.00000,   15.00000,   15.00000, ]
lattice_angles: [ 90.000,  90.000,  90.000, ] # degrees, (23, 13, 12)
lattice_volume:   3.3750000E+03
convergence: {deltae: -1.473E-07, res2:  2.909E-03, residm:  3.033E-05, diffor:  1.921E-04, }
etotal    :  -3.84953331E+01
entropy   :   0.00000000E+00
fermie    :  -2.44669893E-01
cartesian_stress_tensor: # hartree/bohr^3
- [  4.56220648E-04,   0.00000000E+00,   2.41378516E-05, ]
- [  0.00000000E+00,   5.19199897E-04,   0.00000000E+00, ]
- [  2.41378516E-05,   0.00000000E+00,   4.86365832E-04, ]
pressure_GPa:  -1.4336E+01
xred      :
- [  0.0000E+00,  -1.2851E-01,   0.0000E+00, Si]
- [ -1.7730E-01,  -2.3975E-01,   2.1513E-03,  O]
- [  1.7730E-01,  -2.3975E-01,  -2.1513E-03,  O]
- [ -9.3001E-05,   1.9357E-03,  -1.6219E-01,  H]
- [  9.3001E-05,   1.9357E-03,   1.6219E-01,  H]
- [ -1.5911E-01,  -2.3202E-01,   1.3455E-01,  H]
- [  1.5911E-01,  -2.3202E-01,  -1.3455E-01,  H]
cartesian_forces: # hartree/bohr
- [ -0.00000000E+00,   7.91883173E-02,  -0.00000000E+00, ]
- [ -2.04953739E-03,  -2.37817754E-04,   7.63910916E-03, ]
- [  2.04953739E-03,  -2.37817754E-04,  -7.63910916E-03, ]
- [ -4.55972008E-05,  -2.52735642E-02,   2.06959041E-02, ]
- [  4.55972008E-05,  -2.52735642E-02,  -2.06959041E-02, ]
- [ -2.35176773E-02,  -1.40827767E-02,   7.55886970E-03, ]
- [  2.35176773E-02,  -1.40827767E-02,  -7.55886970E-03, ]
force_length_stats: {min:   7.91284712E-03, max:   7.91883173E-02, mean:   3.10308588E-02, }
...

 Integrated electronic density in atomic spheres:
 ------------------------------------------------
 Atom  Sphere_radius  Integrated_density
    1        2.00000          2.11526709
    2        2.00000          6.17006641
    3        2.00000          6.17006641
    4        2.00000          1.28578243
    5        2.00000          1.28578243
    6        2.00000          2.89229490
    7        2.00000          2.89229490

---OUTPUT-----------------------------------------------------------------------

 Cartesian coordinates (xcart) [bohr]
  0.00000000000000E+00 -1.92770780469178E+00  0.00000000000000E+00
 -2.65950823700909E+00 -3.59628212982115E+00  3.22687790923711E-02
  2.65950823700911E+00 -3.59628212982115E+00 -3.22687790923711E-02
 -1.39500999188788E-03  2.90349780804883E-02 -2.43277891262041E+00
  1.39500999188788E-03  2.90349780804883E-02  2.43277891262041E+00
 -2.38663705574668E+00 -3.48031073679700E+00  2.01832419260123E+00
  2.38663705574670E+00 -3.48031073679700E+00 -2.01832419260123E+00
 Reduced coordinates (xred)
  0.00000000000000E+00 -1.28513853646119E-01  0.00000000000000E+00
 -1.77300549133939E-01 -2.39752141988077E-01  2.15125193949141E-03
  1.77300549133941E-01 -2.39752141988077E-01 -2.15125193949141E-03
 -9.30006661258585E-05  1.93566520536589E-03 -1.62185260841360E-01
  9.30006661258585E-05  1.93566520536589E-03  1.62185260841360E-01
 -1.59109137049778E-01 -2.32020715786466E-01  1.34554946173415E-01
  1.59109137049780E-01 -2.32020715786466E-01 -1.34554946173415E-01
 Cartesian forces (fcart) [Ha/bohr]; max,rms= 7.91883E-02 2.19819E-02 (free atoms)
 -0.00000000000000E+00  7.91883172660856E-02 -0.00000000000000E+00
 -2.04953738992990E-03 -2.37817754046335E-04  7.63910916137031E-03
  2.04953738992990E-03 -2.37817754046335E-04 -7.63910916137031E-03
 -4.55972007820965E-05 -2.52735641953314E-02  2.06959041364648E-02
  4.55972007820965E-05 -2.52735641953314E-02 -2.06959041364648E-02
 -2.35176772585394E-02 -1.40827766836651E-02  7.55886970080546E-03
  2.35176772585394E-02 -1.40827766836651E-02 -7.55886970080546E-03
 Reduced forces (fred)
 -0.00000000000000E+00 -1.18782475899128E+00 -0.00000000000000E+00
  3.07430608489485E-02  3.56726631069503E-03 -1.14586637420555E-01
 -3.07430608489485E-02  3.56726631069503E-03  1.14586637420555E-01
  6.83958011731447E-04  3.79103462929971E-01 -3.10438562046972E-01
 -6.83958011731447E-04  3.79103462929971E-01  3.10438562046972E-01
  3.52765158878091E-01  2.11241650254976E-01 -1.13383045512082E-01
 -3.52765158878091E-01  2.11241650254976E-01  1.13383045512082E-01
 Total energy (etotal) [Ha]= -3.84953330951275E+01

 Difference of energy with previous step (new-old):
           Absolute (Ha)=-1.59360E-02
           Relative     =-4.14057E-04

--- Iteration: (  5/100) Internal Cycle: (1/1)
--------------------------------------------------------------------------------

---SELF-CONSISTENT-FIELD CONVERGENCE--------------------------------------------

--- !BeginCycle
iteration_state: {dtset: 1, itime: 5, icycle: 1, }
solver: {iscf: 7, nstep: 100, nline: 4, wfoptalg: 0, }
tolerances: {tolrff: 2.00E-02, }
...

     iter   Etot(hartree)      deltaE(h)  residm     vres2    diffor    maxfor
 ETOT  1  -38.417213896577    -3.842E+01 1.453E-04 2.064E+02 5.118E-01 5.910E-01
 ETOT  2  -38.468031254622    -5.082E-02 2.238E-04 3.250E+01 7.387E-01 1.477E-01
 ETOT  3  -38.504549688204    -3.652E-02 8.862E-04 2.124E+01 1.960E-01 4.831E-02
 ETOT  4  -38.513835679674    -9.286E-03 9.488E-05 4.214E+00 4.202E-02 1.789E-02
 ETOT  5  -38.514120867012    -2.852E-04 4.696E-05 7.348E-01 2.541E-02 2.435E-02
 ETOT  6  -38.514143207372    -2.234E-05 7.960E-06 1.100E-01 1.361E-03 2.389E-02
 ETOT  7  -38.514144261576    -1.054E-06 1.217E-05 1.554E-02 4.439E-04 2.394E-02
 ETOT  8  -38.514144352214    -9.064E-08 1.793E-05 2.035E-03 3.164E-04 2.402E-02

 At SCF step    8, forces are sufficiently converged : 
  for the second time, max diff in force=  3.164E-04 is less than < tolrff=  2.000E-02 times max force

 Cartesian components of stress tensor (hartree/bohr^3)
  sigma(1 1)=  5.02492686E-04  sigma(3 2)=  0.00000000E+00
  sigma(2 2)=  5.12255327E-04  sigma(3 1)=  1.45277511E-05
  sigma(3 3)=  4.61237329E-04  sigma(2 1)=  0.00000000E+00


--- !ResultsGS
iteration_state: {dtset: 1, itime: 5, icycle: 1, }
comment   : Summary of ground state results
lattice_vectors:
- [ 15.0000000,   0.0000000,   0.0000000, ]
- [  0.0000000,  15.0000000,   0.0000000, ]
- [  0.0000000,   0.0000000,  15.0000000, ]
lattice_lengths: [  15.00000,   15.00000,   15.00000, ]
lattice_angles: [ 90.000,  90.000,  90.000, ] # degrees, (23, 13, 12)
lattice_volume:   3.3750000E+03
convergence: {deltae: -9.064E-08, res2:  2.035E-03, residm:  1.793E-05, diffor:  3.164E-04, }
etotal    :  -3.85141444E+01
entropy   :   0.00000000E+00
fermie    :  -2.39452192E-01
cartesian_stress_tensor: # hartree/bohr^3
- [  5.02492686E-04,   0.00000000E+00,   1.45277511E-05, ]
- [  0.00000000E+00,   5.12255327E-04,   0.00000000E+00, ]
- [  1.45277511E-05,   0.00000000E+00,   4.61237329E-04, ]
pressure_GPa:  -1.4475E+01
xred      :
- [  0.0000E+00,  -1.0951E-01,   0.0000E+00, Si]
- [ -1.7680E-01,  -2.3945E-01,   4.1818E-03,  O]
- [  1.7680E-01,  -2.3945E-01,  -4.1818E-03,  O]
- [ -9.1234E-05,  -4.2184E-03,  -1.5768E-01,  H]
- [  9.1234E-05,  -4.2184E-03,   1.5768E-01,  H]
- [ -1.6523E-01,  -2.3567E-01,   1.3653E-01,  H]
- [  1.6523E-01,  -2.3567E-01,  -1.3653E-01,  H]
cartesian_forces: # hartree/bohr
- [ -0.00000000E+00,  -2.08273713E-02,  -0.00000000E+00, ]
- [  1.89303962E-02,   2.40170811E-02,   1.46066989E-03, ]
- [ -1.89303962E-02,   2.40170811E-02,  -1.46066989E-03, ]
- [ -1.32728666E-03,  -1.57871308E-03,   8.07626387E-04, ]
- [  1.32728666E-03,  -1.57871308E-03,  -8.07626387E-04, ]
- [ -1.57416465E-02,  -1.20246823E-02,   4.58631136E-03, ]
- [  1.57416465E-02,  -1.20246823E-02,  -4.58631136E-03, ]
force_length_stats: {min:   2.21501360E-03, max:   3.06155784E-02, mean:   1.81649068E-02, }
...

 Integrated electronic density in atomic spheres:
 ------------------------------------------------
 Atom  Sphere_radius  Integrated_density
    1        2.00000          2.01267682
    2        2.00000          6.13416630
    3        2.00000          6.13416630
    4        2.00000          1.41118576
    5        2.00000          1.41118576
    6        2.00000          2.92982250
    7        2.00000          2.92982250

---OUTPUT-----------------------------------------------------------------------

 Cartesian coordinates (xcart) [bohr]
  0.00000000000000E+00 -1.64266372622472E+00  0.00000000000000E+00
 -2.65203950750535E+00 -3.59176563116667E+00  6.27265343739053E-02
  2.65203950750537E+00 -3.59176563116667E+00 -6.27265343739053E-02
 -1.36851378692042E-03 -6.32755756821027E-02 -2.36513084387917E+00
  1.36851378692042E-03 -6.32755756821027E-02  2.36513084387917E+00
 -2.47849538131472E+00 -3.53503872092241E+00  2.04798674168784E+00
  2.47849538131474E+00 -3.53503872092241E+00 -2.04798674168784E+00
 Reduced coordinates (xred)
  0.00000000000000E+00 -1.09510915081648E-01  0.00000000000000E+00
 -1.76802633833690E-01 -2.39451042077778E-01  4.18176895826035E-03
  1.76802633833691E-01 -2.39451042077778E-01 -4.18176895826035E-03
 -9.12342524613612E-05 -4.21837171214018E-03 -1.57675389591945E-01
  9.12342524613612E-05 -4.21837171214018E-03  1.57675389591945E-01
 -1.65233025420981E-01 -2.35669248061494E-01  1.36532449445856E-01
  1.65233025420983E-01 -2.35669248061494E-01 -1.36532449445856E-01
 Cartesian forces (fcart) [Ha/bohr]; max,rms= 2.40171E-02 1.22379E-02 (free atoms)
 -0.00000000000000E+00 -2.08273712583355E-02 -0.00000000000000E+00
  1.89303962079736E-02  2.40170810588057E-02  1.46066988651057E-03
 -1.89303962079736E-02  2.40170810588057E-02 -1.46066988651057E-03
 -1.32728666343526E-03 -1.57871308072534E-03  8.07626387310085E-04
  1.32728666343526E-03 -1.57871308072534E-03 -8.07626387310085E-04
 -1.57416464501945E-02 -1.20246823489126E-02  4.58631136333064E-03
  1.57416464501945E-02 -1.20246823489126E-02 -4.58631136333064E-03
 Reduced forces (fred)
  0.00000000000000E+00  3.12410568875032E-01  0.00000000000000E+00
 -2.83955943119604E-01 -3.60256215882086E-01 -2.19100482976585E-02
  2.83955943119604E-01 -3.60256215882086E-01  2.19100482976585E-02
  1.99092999515288E-02  2.36806962108801E-02 -1.21143958096513E-02
 -1.99092999515288E-02  2.36806962108801E-02  1.21143958096513E-02
  2.36124696752918E-01  1.80370235233690E-01 -6.87946704499596E-02
 -2.36124696752918E-01  1.80370235233690E-01  6.87946704499596E-02
 Total energy (etotal) [Ha]= -3.85141443522137E+01

 Difference of energy with previous step (new-old):
           Absolute (Ha)=-1.88113E-02
           Relative     =-4.88544E-04

--- Iteration: (  6/100) Internal Cycle: (1/1)
--------------------------------------------------------------------------------

---SELF-CONSISTENT-FIELD CONVERGENCE--------------------------------------------

--- !BeginCycle
iteration_state: {dtset: 1, itime: 6, icycle: 1, }
solver: {iscf: 7, nstep: 100, nline: 4, wfoptalg: 0, }
tolerances: {tolrff: 2.00E-02, }
...

     iter   Etot(hartree)      deltaE(h)  residm     vres2    diffor    maxfor
 ETOT  1  -38.516221167723    -3.852E+01 9.012E-05 6.839E-01 2.268E-02 4.350E-02
 ETOT  2  -38.516513221586    -2.921E-04 1.946E-04 4.264E-02 2.543E-02 2.154E-02
 ETOT  3  -38.516528660685    -1.544E-05 1.372E-04 2.303E-02 1.565E-03 2.204E-02
 ETOT  4  -38.516542156046    -1.350E-05 1.644E-04 7.997E-03 2.064E-03 2.297E-02
 ETOT  5  -38.516543163734    -1.008E-06 8.256E-05 1.700E-03 1.204E-03 2.237E-02
 ETOT  6  -38.516543214495    -5.076E-08 7.867E-05 2.248E-04 5.647E-05 2.241E-02
 ETOT  7  -38.516543215962    -1.467E-09 3.390E-05 4.257E-05 2.403E-05 2.240E-02

 At SCF step    7, forces are sufficiently converged : 
  for the second time, max diff in force=  2.403E-05 is less than < tolrff=  2.000E-02 times max force

 Cartesian components of stress tensor (hartree/bohr^3)
  sigma(1 1)=  4.97384641E-04  sigma(3 2)=  0.00000000E+00
  sigma(2 2)=  5.08259576E-04  sigma(3 1)=  1.37424688E-05
  sigma(3 3)=  4.61407888E-04  sigma(2 1)=  0.00000000E+00


--- !ResultsGS
iteration_state: {dtset: 1, itime: 6, icycle: 1, }
comment   : Summary of ground state results
lattice_vectors:
- [ 15.0000000,   0.0000000,   0.0000000, ]
- [  0.0000000,  15.0000000,   0.0000000, ]
- [  0.0000000,   0.0000000,  15.0000000, ]
lattice_lengths: [  15.00000,   15.00000,   15.00000, ]
lattice_angles: [ 90.000,  90.000,  90.000, ] # degrees, (23, 13, 12)
lattice_volume:   3.3750000E+03
convergence: {deltae: -1.467E-09, res2:  4.257E-05, residm:  3.390E-05, diffor:  2.403E-05, }
etotal    :  -3.85165432E+01
entropy   :   0.00000000E+00
fermie    :  -2.39968433E-01
cartesian_stress_tensor: # hartree/bohr^3
- [  4.97384641E-04,   0.00000000E+00,   1.37424688E-05, ]
- [  0.00000000E+00,   5.08259576E-04,   0.00000000E+00, ]
- [  1.37424688E-05,   0.00000000E+00,   4.61407888E-04, ]
pressure_GPa:  -1.4387E+01
xred      :
- [  0.0000E+00,  -1.0947E-01,   0.0000E+00, Si]
- [ -1.7588E-01,  -2.3808E-01,   4.3458E-03,  O]
- [  1.7588E-01,  -2.3808E-01,  -4.3458E-03,  O]
- [ -1.7426E-04,  -4.7194E-03,  -1.5717E-01,  H]
- [  1.7426E-04,  -4.7194E-03,   1.5717E-01,  H]
- [ -1.6645E-01,  -2.3655E-01,   1.3691E-01,  H]
- [  1.6645E-01,  -2.3655E-01,  -1.3691E-01,  H]
cartesian_forces: # hartree/bohr
- [ -0.00000000E+00,  -1.88845698E-02,  -0.00000000E+00, ]
- [  1.71746228E-02,   2.24015718E-02,   1.57532350E-03, ]
- [ -1.71746228E-02,   2.24015718E-02,  -1.57532350E-03, ]
- [ -1.59944497E-03,  -1.14030356E-03,  -6.06089313E-04, ]
- [  1.59944497E-03,  -1.14030356E-03,   6.06089313E-04, ]
- [ -1.47783633E-02,  -1.18189833E-02,   3.36342542E-03, ]
- [  1.47783633E-02,  -1.18189833E-02,  -3.36342542E-03, ]
force_length_stats: {min:   2.05568983E-03, max:   2.82715357E-02, mean:   1.68540910E-02, }
...

 Integrated electronic density in atomic spheres:
 ------------------------------------------------
 Atom  Sphere_radius  Integrated_density
    1        2.00000          2.03784783
    2        2.00000          6.13993817
    3        2.00000          6.13993817
    4        2.00000          1.41749074
    5        2.00000          1.41749074
    6        2.00000          2.93243169
    7        2.00000          2.93243169

---OUTPUT-----------------------------------------------------------------------

 Cartesian coordinates (xcart) [bohr]
  0.00000000000000E+00 -1.64211687376289E+00  0.00000000000000E+00
 -2.63815208759928E+00 -3.57126120537552E+00  6.51862963051055E-02
  2.63815208759930E+00 -3.57126120537552E+00 -6.51862963051055E-02
 -2.61383496641051E-03 -7.07912080692193E-02 -2.35760424828230E+00
  2.61383496641051E-03 -7.07912080692193E-02  2.35760424828230E+00
 -2.49680669799018E+00 -3.54830094055737E+00  2.05361611934841E+00
  2.49680669799020E+00 -3.54830094055737E+00 -2.05361611934841E+00
 Reduced coordinates (xred)
  0.00000000000000E+00 -1.09474458250859E-01  0.00000000000000E+00
 -1.75876805839952E-01 -2.38084080358368E-01  4.34575308700703E-03
  1.75876805839953E-01 -2.38084080358368E-01 -4.34575308700703E-03
 -1.74255664427367E-04 -4.71941387128129E-03 -1.57173616552153E-01
  1.74255664427367E-04 -4.71941387128128E-03  1.57173616552153E-01
 -1.66453779866012E-01 -2.36553396037158E-01  1.36907741289894E-01
  1.66453779866013E-01 -2.36553396037158E-01 -1.36907741289894E-01
 Cartesian forces (fcart) [Ha/bohr]; max,rms= 2.24016E-02 1.13441E-02 (free atoms)
 -0.00000000000000E+00 -1.88845697922175E-02 -0.00000000000000E+00
  1.71746227646900E-02  2.24015717860675E-02  1.57532349840035E-03
 -1.71746227646900E-02  2.24015717860675E-02 -1.57532349840035E-03
 -1.59944496882424E-03 -1.14030356096976E-03 -6.06089312526754E-04
  1.59944496882424E-03 -1.14030356096976E-03  6.06089312526754E-04
 -1.47783633205341E-02 -1.18189833289890E-02  3.36342542290759E-03
  1.47783633205341E-02 -1.18189833289890E-02 -3.36342542290759E-03
 Reduced forces (fred)
  0.00000000000000E+00  2.83268546883262E-01  0.00000000000000E+00
 -2.57619341470350E-01 -3.36023576791012E-01 -2.36298524760053E-02
  2.57619341470350E-01 -3.36023576791012E-01  2.36298524760053E-02
  2.39916745323635E-02  1.71045534145464E-02  9.09133968790131E-03
 -2.39916745323635E-02  1.71045534145464E-02 -9.09133968790131E-03
  2.21675449808011E-01  1.77284749934835E-01 -5.04513813436138E-02
 -2.21675449808011E-01  1.77284749934835E-01  5.04513813436138E-02
 Total energy (etotal) [Ha]= -3.85165432159621E+01

 Difference of energy with previous step (new-old):
           Absolute (Ha)=-2.39886E-03
           Relative     =-6.22833E-05

--- Iteration: (  7/100) Internal Cycle: (1/1)
--------------------------------------------------------------------------------

---SELF-CONSISTENT-FIELD CONVERGENCE--------------------------------------------

--- !BeginCycle
iteration_state: {dtset: 1, itime: 7, icycle: 1, }
solver: {iscf: 7, nstep: 100, nline: 4, wfoptalg: 0, }
tolerances: {tolrff: 2.00E-02, }
...

     iter   Etot(hartree)      deltaE(h)  residm     vres2    diffor    maxfor
 ETOT  1  -38.444203406819    -3.844E+01 1.659E-04 1.261E+02 4.687E-01 4.875E-01
 ETOT  2  -38.506159952651    -6.196E-02 7.539E-05 5.462E+00 6.460E-01 1.585E-01
 ETOT  3  -38.510854707169    -4.695E-03 4.420E-04 2.497E+00 1.398E-01 4.714E-02
 ETOT  4  -38.512123396449    -1.269E-03 2.426E-05 8.835E-01 2.219E-02 6.036E-02
 ETOT  5  -38.512264623931    -1.412E-04 1.743E-05 2.137E-01 6.761E-03 6.202E-02
 ETOT  6  -38.512271392363    -6.768E-06 5.981E-06 2.865E-02 2.169E-03 6.204E-02
 ETOT  7  -38.512271706811    -3.144E-07 3.702E-06 4.910E-03 5.206E-04 6.230E-02
 ETOT  8  -38.512271771482    -6.467E-08 9.291E-07 7.029E-04 3.163E-04 6.217E-02

 At SCF step    8, forces are sufficiently converged : 
  for the second time, max diff in force=  3.163E-04 is less than < tolrff=  2.000E-02 times max force

 Cartesian components of stress tensor (hartree/bohr^3)
  sigma(1 1)=  3.95889148E-04  sigma(3 2)=  0.00000000E+00
  sigma(2 2)=  4.54618218E-04  sigma(3 1)=  2.00387316E-06
  sigma(3 3)=  4.83927831E-04  sigma(2 1)=  0.00000000E+00


--- !ResultsGS
iteration_state: {dtset: 1, itime: 7, icycle: 1, }
comment   : Summary of ground state results
lattice_vectors:
- [ 15.0000000,   0.0000000,   0.0000000, ]
- [  0.0000000,  15.0000000,   0.0000000, ]
- [  0.0000000,   0.0000000,  15.0000000, ]
lattice_lengths: [  15.00000,   15.00000,   15.00000, ]
lattice_angles: [ 90.000,  90.000,  90.000, ] # degrees, (23, 13, 12)
lattice_volume:   3.3750000E+03
convergence: {deltae: -6.467E-08, res2:  7.029E-04, residm:  9.291E-07, diffor:  3.163E-04, }
etotal    :  -3.85122718E+01
entropy   :   0.00000000E+00
fermie    :  -2.48567620E-01
cartesian_stress_tensor: # hartree/bohr^3
- [  3.95889148E-04,   0.00000000E+00,   2.00387316E-06, ]
- [  0.00000000E+00,   4.54618218E-04,   0.00000000E+00, ]
- [  2.00387316E-06,   0.00000000E+00,   4.83927831E-04, ]
pressure_GPa:  -1.3087E+01
xred      :
- [  0.0000E+00,  -1.0893E-01,   0.0000E+00, Si]
- [ -1.6488E-01,  -2.2114E-01,   6.5421E-03,  O]
- [  1.6488E-01,  -2.2114E-01,  -6.5421E-03,  O]
- [ -1.5148E-03,  -1.0477E-02,  -1.5235E-01,  H]
- [  1.5148E-03,  -1.0477E-02,   1.5235E-01,  H]
- [ -1.8163E-01,  -2.4801E-01,   1.4077E-01,  H]
- [  1.8163E-01,  -2.4801E-01,  -1.4077E-01,  H]
cartesian_forces: # hartree/bohr
- [ -0.00000000E+00,   4.99464758E-02,  -0.00000000E+00, ]
- [ -6.21671500E-02,  -4.35916647E-02,   2.61788777E-02, ]
- [  6.21671500E-02,  -4.35916647E-02,  -2.61788777E-02, ]
- [ -5.65652120E-03,   1.38415706E-02,  -1.79280153E-02, ]
- [  5.65652120E-03,   1.38415706E-02,   1.79280153E-02, ]
- [  2.58060473E-04,   4.77685620E-03,  -3.09367813E-02, ]
- [ -2.58060473E-04,   4.77685620E-03,   3.09367813E-02, ]
force_length_stats: {min:   2.33452145E-02, max:   8.03138930E-02, mean:   4.56962309E-02, }
...

 Integrated electronic density in atomic spheres:
 ------------------------------------------------
 Atom  Sphere_radius  Integrated_density
    1        2.00000          2.46611737
    2        2.00000          6.25598696
    3        2.00000          6.25598696
    4        2.00000          1.47927704
    5        2.00000          1.47927704
    6        2.00000          2.66829938
    7        2.00000          2.66829938

---OUTPUT-----------------------------------------------------------------------

 Cartesian coordinates (xcart) [bohr]
  0.00000000000000E+00 -1.63402104481118E+00  0.00000000000000E+00
 -2.47322463347738E+00 -3.31703566482053E+00  9.81311274577738E-02
  2.47322463347740E+00 -3.31703566482053E+00 -9.81311274577738E-02
 -2.27225083585107E-02 -1.57153979799891E-01 -2.28523656357729E+00
  2.27225083585107E-02 -1.57153979799891E-01  2.28523656357729E+00
 -2.72452075962783E+00 -3.72021162385754E+00  2.11150873993402E+00
  2.72452075962785E+00 -3.72021162385754E+00 -2.11150873993402E+00
 Reduced coordinates (xred)
  0.00000000000000E+00 -1.08934736320745E-01  0.00000000000000E+00
 -1.64881642231825E-01 -2.21135710988035E-01  6.54207516385159E-03
  1.64881642231826E-01 -2.21135710988035E-01 -6.54207516385159E-03
 -1.51483389056738E-03 -1.04769319866594E-02 -1.52349104238486E-01
  1.51483389056738E-03 -1.04769319866594E-02  1.52349104238486E-01
 -1.81634717308522E-01 -2.48014108257170E-01  1.40767249328935E-01
  1.81634717308523E-01 -2.48014108257170E-01 -1.40767249328935E-01
 Cartesian forces (fcart) [Ha/bohr]; max,rms= 6.21671E-02 2.96369E-02 (free atoms)
 -0.00000000000000E+00  4.99464757649075E-02 -0.00000000000000E+00
 -6.21671499994571E-02 -4.35916646785786E-02  2.61788777080693E-02
  6.21671499994571E-02 -4.35916646785786E-02 -2.61788777080693E-02
 -5.65652119609181E-03  1.38415705956066E-02 -1.79280152792585E-02
  5.65652119609181E-03  1.38415705956066E-02  1.79280152792585E-02
  2.58060472852822E-04  4.77685620051820E-03 -3.09367813162204E-02
 -2.58060472852822E-04  4.77685620051820E-03  3.09367813162204E-02
 Reduced forces (fred)
 -0.00000000000000E+00 -7.49197136473613E-01 -0.00000000000000E+00
  9.32507249991856E-01  6.53874970178679E-01 -3.92683165621040E-01
 -9.32507249991856E-01  6.53874970178679E-01  3.92683165621040E-01
  8.48478179413772E-02 -2.07623558934099E-01  2.68920229188878E-01
 -8.48478179413772E-02 -2.07623558934099E-01 -2.68920229188878E-01
 -3.87090709279233E-03 -7.16528430077730E-02  4.64051719743306E-01
  3.87090709279233E-03 -7.16528430077730E-02 -4.64051719743306E-01
 Total energy (etotal) [Ha]= -3.85122717714817E+01

 Difference of energy with previous step (new-old):
           Absolute (Ha)= 4.27144E-03
           Relative     = 1.10905E-04

--- Iteration: (  8/100) Internal Cycle: (1/1)
--------------------------------------------------------------------------------

---SELF-CONSISTENT-FIELD CONVERGENCE--------------------------------------------

--- !BeginCycle
iteration_state: {dtset: 1, itime: 8, icycle: 1, }
solver: {iscf: 7, nstep: 100, nline: 4, wfoptalg: 0, }
tolerances: {tolrff: 2.00E-02, }
...

     iter   Etot(hartree)      deltaE(h)  residm     vres2    diffor    maxfor
 ETOT  1  -38.424434037313    -3.842E+01 1.055E-04 1.368E+02 4.335E-01 4.834E-01
 ETOT  2  -38.464295561325    -3.986E-02 1.478E-05 4.378E+01 6.461E-01 1.626E-01
 ETOT  3  -38.520271846088    -5.598E-02 9.801E-04 6.024E+00 1.887E-01 2.604E-02
 ETOT  4  -38.524865786858    -4.594E-03 4.301E-05 7.561E-01 2.140E-02 9.801E-03
 ETOT  5  -38.524934276767    -6.849E-05 6.435E-06 1.562E-01 1.111E-02 9.458E-03
 ETOT  6  -38.524938947437    -4.671E-06 1.037E-06 3.855E-02 1.440E-03 9.425E-03
 ETOT  7  -38.524939761956    -8.145E-07 6.888E-07 3.966E-03 5.233E-04 9.410E-03
 ETOT  8  -38.524939827246    -6.529E-08 1.687E-07 6.143E-04 2.742E-04 9.409E-03
 ETOT  9  -38.524939837602    -1.036E-08 1.036E-07 6.859E-05 1.392E-04 9.408E-03
 ETOT 10  -38.524939838896    -1.294E-09 2.554E-08 5.680E-06 3.721E-05 9.407E-03

 At SCF step   10, forces are sufficiently converged : 
  for the second time, max diff in force=  3.721E-05 is less than < tolrff=  2.000E-02 times max force

 Cartesian components of stress tensor (hartree/bohr^3)
  sigma(1 1)=  4.71896491E-04  sigma(3 2)=  0.00000000E+00
  sigma(2 2)=  4.86363083E-04  sigma(3 1)=  8.71992778E-06
  sigma(3 3)=  4.61755812E-04  sigma(2 1)=  0.00000000E+00


--- !ResultsGS
iteration_state: {dtset: 1, itime: 8, icycle: 1, }
comment   : Summary of ground state results
lattice_vectors:
- [ 15.0000000,   0.0000000,   0.0000000, ]
- [  0.0000000,  15.0000000,   0.0000000, ]
- [  0.0000000,   0.0000000,  15.0000000, ]
lattice_lengths: [  15.00000,   15.00000,   15.00000, ]
lattice_angles: [ 90.000,  90.000,  90.000, ] # degrees, (23, 13, 12)
lattice_volume:   3.3750000E+03
convergence: {deltae: -1.294E-09, res2:  5.680E-06, residm:  2.554E-08, diffor:  3.721E-05, }
etotal    :  -3.85249398E+01
entropy   :   0.00000000E+00
fermie    :  -2.42106912E-01
cartesian_stress_tensor: # hartree/bohr^3
- [  4.71896491E-04,   0.00000000E+00,   8.71992778E-06, ]
- [  0.00000000E+00,   4.86363083E-04,   0.00000000E+00, ]
- [  8.71992778E-06,   0.00000000E+00,   4.61755812E-04, ]
pressure_GPa:  -1.3926E+01
xred      :
- [  0.0000E+00,  -1.0812E-01,   0.0000E+00, Si]
- [ -1.7216E-01,  -2.3128E-01,   6.0312E-03,  O]
- [  1.7216E-01,  -2.3128E-01,  -6.0312E-03,  O]
- [ -9.1240E-04,  -6.9850E-03,  -1.5560E-01,  H]
- [  9.1240E-04,  -6.9850E-03,   1.5560E-01,  H]
- [ -1.7356E-01,  -2.4177E-01,   1.3800E-01,  H]
- [  1.7356E-01,  -2.4177E-01,  -1.3800E-01,  H]
cartesian_forces: # hartree/bohr
- [ -0.00000000E+00,  -8.46559469E-03,  -0.00000000E+00, ]
- [  3.79139517E-03,   7.72487587E-03,  -7.12651226E-04, ]
- [ -3.79139517E-03,   7.72487587E-03,   7.12651226E-04, ]
- [ -3.24669499E-03,   4.13007819E-03,  -7.15636226E-03, ]
- [  3.24669499E-03,   4.13007819E-03,   7.15636226E-03, ]
- [ -9.40721623E-03,  -7.62215671E-03,   3.48667890E-04, ]
- [  9.40721623E-03,  -7.62215671E-03,  -3.48667890E-04, ]
force_length_stats: {min:   8.46559469E-03, max:   1.21125786E-02, mean:   9.67359715E-03, }
...

 Integrated electronic density in atomic spheres:
 ------------------------------------------------
 Atom  Sphere_radius  Integrated_density
    1        2.00000          2.16722356
    2        2.00000          6.20699301
    3        2.00000          6.20699301
    4        2.00000          1.43451615
    5        2.00000          1.43451615
    6        2.00000          2.92114864
    7        2.00000          2.92114864

---OUTPUT-----------------------------------------------------------------------

 Cartesian coordinates (xcart) [bohr]
  0.00000000000000E+00 -1.62179381750883E+00  0.00000000000000E+00
 -2.58233228792706E+00 -3.46918225597756E+00  9.04674439616711E-02
  2.58233228792708E+00 -3.46918225597756E+00 -9.04674439616711E-02
 -1.36860218911602E-02 -1.04774926343917E-01 -2.33403757108778E+00
  1.36860218911602E-02 -1.04774926343917E-01  2.33403757108778E+00
 -2.60335409413598E+00 -3.62655769980766E+00  2.07007165720530E+00
  2.60335409413600E+00 -3.62655769980766E+00 -2.07007165720530E+00
 Reduced coordinates (xred)
  0.00000000000000E+00 -1.08119587833922E-01  0.00000000000000E+00
 -1.72155485861804E-01 -2.31278817065171E-01  6.03116293077807E-03
  1.72155485861805E-01 -2.31278817065171E-01 -6.03116293077807E-03
 -9.12401459410678E-04 -6.98499508959450E-03 -1.55602504739185E-01
  9.12401459410678E-04 -6.98499508959449E-03  1.55602504739185E-01
 -1.73556939609065E-01 -2.41770513320510E-01  1.38004777147020E-01
  1.73556939609067E-01 -2.41770513320510E-01 -1.38004777147020E-01
 Cartesian forces (fcart) [Ha/bohr]; max,rms= 9.40722E-03 5.65615E-03 (free atoms)
 -0.00000000000000E+00 -8.46559469429482E-03 -0.00000000000000E+00
  3.79139516743622E-03  7.72487587385910E-03 -7.12651226258973E-04
 -3.79139516743622E-03  7.72487587385910E-03  7.12651226258973E-04
 -3.24669498918688E-03  4.13007818706406E-03 -7.15636225607614E-03
  3.24669498918688E-03  4.13007818706406E-03  7.15636225607614E-03
 -9.40721623492052E-03 -7.62215671377575E-03  3.48667890126672E-04
  9.40721623492052E-03 -7.62215671377575E-03 -3.48667890126672E-04
 Reduced forces (fred)
  0.00000000000000E+00  1.26983920414422E-01  0.00000000000000E+00
 -5.68709275115433E-02 -1.15873138107887E-01  1.06897683938846E-02
  5.68709275115433E-02 -1.15873138107887E-01 -1.06897683938846E-02
  4.87004248378032E-02 -6.19511728059609E-02  1.07345433841142E-01
 -4.87004248378032E-02 -6.19511728059609E-02 -1.07345433841142E-01
  1.41108243523808E-01  1.14332350706636E-01 -5.23001835190008E-03
 -1.41108243523808E-01  1.14332350706636E-01  5.23001835190008E-03
 Total energy (etotal) [Ha]= -3.85249398388964E+01

 Difference of energy with previous step (new-old):
           Absolute (Ha)=-1.26681E-02
           Relative     =-3.28882E-04

--- Iteration: (  9/100) Internal Cycle: (1/1)
--------------------------------------------------------------------------------

---SELF-CONSISTENT-FIELD CONVERGENCE--------------------------------------------

--- !BeginCycle
iteration_state: {dtset: 1, itime: 9, icycle: 1, }
solver: {iscf: 7, nstep: 100, nline: 4, wfoptalg: 0, }
tolerances: {tolrff: 2.00E-02, }
...

     iter   Etot(hartree)      deltaE(h)  residm     vres2    diffor    maxfor
 ETOT  1  -38.525513021027    -3.853E+01 1.094E-06 1.068E+00 3.733E-02 4.580E-02
 ETOT  2  -38.526040995197    -5.280E-04 4.353E-07 8.770E-02 4.851E-02 7.898E-03
 ETOT  3  -38.526087128090    -4.613E-05 2.840E-06 3.512E-02 2.287E-03 7.856E-03
 ETOT  4  -38.526113648907    -2.652E-05 2.992E-07 1.135E-02 2.590E-03 7.774E-03
 ETOT  5  -38.526115057830    -1.409E-06 4.877E-08 2.707E-03 1.692E-03 7.819E-03
 ETOT  6  -38.526115143738    -8.591E-08 1.550E-08 3.762E-04 6.958E-05 7.819E-03
 ETOT  7  -38.526115146770    -3.033E-09 4.519E-09 6.032E-05 5.064E-05 7.820E-03

 At SCF step    7, forces are sufficiently converged : 
  for the second time, max diff in force=  5.064E-05 is less than < tolrff=  2.000E-02 times max force

 Cartesian components of stress tensor (hartree/bohr^3)
  sigma(1 1)=  4.63018207E-04  sigma(3 2)=  0.00000000E+00
  sigma(2 2)=  4.81822130E-04  sigma(3 1)=  7.36413387E-06
  sigma(3 3)=  4.65865101E-04  sigma(2 1)=  0.00000000E+00


--- !ResultsGS
iteration_state: {dtset: 1, itime: 9, icycle: 1, }
comment   : Summary of ground state results
lattice_vectors:
- [ 15.0000000,   0.0000000,   0.0000000, ]
- [  0.0000000,  15.0000000,   0.0000000, ]
- [  0.0000000,   0.0000000,  15.0000000, ]
lattice_lengths: [  15.00000,   15.00000,   15.00000, ]
lattice_angles: [ 90.000,  90.000,  90.000, ] # degrees, (23, 13, 12)
lattice_volume:   3.3750000E+03
convergence: {deltae: -3.033E-09, res2:  6.032E-05, residm:  4.519E-09, diffor:  5.064E-05, }
etotal    :  -3.85261151E+01
entropy   :   0.00000000E+00
fermie    :  -2.43315545E-01
cartesian_stress_tensor: # hartree/bohr^3
- [  4.63018207E-04,   0.00000000E+00,   7.36413387E-06, ]
- [  0.00000000E+00,   4.81822130E-04,   0.00000000E+00, ]
- [  7.36413387E-06,   0.00000000E+00,   4.65865101E-04, ]
pressure_GPa:  -1.3835E+01
xred      :
- [  0.0000E+00,  -1.0813E-01,   0.0000E+00, Si]
- [ -1.7128E-01,  -2.2932E-01,   6.4482E-03,  O]
- [  1.7128E-01,  -2.2932E-01,  -6.4482E-03,  O]
- [ -1.2859E-03,  -7.2526E-03,  -1.5568E-01,  H]
- [  1.2859E-03,  -7.2526E-03,   1.5568E-01,  H]
- [ -1.7581E-01,  -2.4345E-01,   1.3824E-01,  H]
- [  1.7581E-01,  -2.4345E-01,  -1.3824E-01,  H]
cartesian_forces: # hartree/bohr
- [ -0.00000000E+00,  -2.77220865E-05,  -0.00000000E+00, ]
- [ -2.51477756E-03,   1.10294044E-04,   5.80635181E-04, ]
- [  2.51477756E-03,   1.10294044E-04,  -5.80635181E-04, ]
- [ -3.69705513E-03,   5.21797560E-03,  -7.22207154E-03, ]
- [  3.69705513E-03,   5.21797560E-03,   7.22207154E-03, ]
- [ -7.81999655E-03,  -5.31440860E-03,  -2.09701284E-03, ]
- [  7.81999655E-03,  -5.31440860E-03,   2.09701284E-03, ]
force_length_stats: {min:   2.77220865E-05, max:   9.68466560E-03, mean:   6.26521732E-03, }
...

 Integrated electronic density in atomic spheres:
 ------------------------------------------------
 Atom  Sphere_radius  Integrated_density
    1        2.00000          2.20044050
    2        2.00000          6.20826743
    3        2.00000          6.20826743
    4        2.00000          1.43717463
    5        2.00000          1.43717463
    6        2.00000          2.88534989
    7        2.00000          2.88534989

---OUTPUT-----------------------------------------------------------------------

 Cartesian coordinates (xcart) [bohr]
  0.00000000000000E+00 -1.62196257545997E+00  0.00000000000000E+00
 -2.56924037732861E+00 -3.43984676286877E+00  9.67227351455595E-02
  2.56924037732863E+00 -3.43984676286877E+00 -9.67227351455595E-02
 -1.92877772271760E-02 -1.08789506591038E-01 -2.33517145011655E+00
  1.92877772271760E-02 -1.08789506591038E-01  2.33517145011655E+00
 -2.63718064934333E+00 -3.65179423369376E+00  2.07353726986351E+00
  2.63718064934335E+00 -3.65179423369376E+00 -2.07353726986351E+00
 Reduced coordinates (xred)
  0.00000000000000E+00 -1.08130838363998E-01  0.00000000000000E+00
 -1.71282691821907E-01 -2.29323117524584E-01  6.44818234303730E-03
  1.71282691821909E-01 -2.29323117524584E-01 -6.44818234303730E-03
 -1.28585181514507E-03 -7.25263377273588E-03 -1.55678096674436E-01
  1.28585181514507E-03 -7.25263377273588E-03  1.55678096674436E-01
 -1.75812043289555E-01 -2.43452948912917E-01  1.38235817990901E-01
  1.75812043289557E-01 -2.43452948912917E-01 -1.38235817990901E-01
 Cartesian forces (fcart) [Ha/bohr]; max,rms= 7.82000E-03 4.29308E-03 (free atoms)
 -0.00000000000000E+00 -2.77220865438933E-05 -0.00000000000000E+00
 -2.51477755758597E-03  1.10294043509013E-04  5.80635180663620E-04
  2.51477755758597E-03  1.10294043509013E-04 -5.80635180663620E-04
 -3.69705512917727E-03  5.21797560054046E-03 -7.22207154348460E-03
  3.69705512917727E-03  5.21797560054046E-03  7.22207154348460E-03
 -7.81999655387893E-03 -5.31440860077752E-03 -2.09701284421225E-03
  7.81999655387893E-03 -5.31440860077752E-03  2.09701284421225E-03
 Reduced forces (fred)
  0.00000000000000E+00  4.15831298158400E-04  0.00000000000000E+00
  3.77216633637896E-02 -1.65441065263520E-03 -8.70952770995431E-03
 -3.77216633637896E-02 -1.65441065263520E-03  8.70952770995431E-03
  5.54558269376591E-02 -7.82696340081069E-02  1.08331073152269E-01
 -5.54558269376591E-02 -7.82696340081069E-02 -1.08331073152269E-01
  1.17299948308184E-01  7.97161290116629E-02  3.14551926631837E-02
 -1.17299948308184E-01  7.97161290116629E-02 -3.14551926631837E-02
 Total energy (etotal) [Ha]= -3.85261151467705E+01

 Difference of energy with previous step (new-old):
           Absolute (Ha)=-1.17531E-03
           Relative     =-3.05072E-05

--- Iteration: ( 10/100) Internal Cycle: (1/1)
--------------------------------------------------------------------------------

---SELF-CONSISTENT-FIELD CONVERGENCE--------------------------------------------

--- !BeginCycle
iteration_state: {dtset: 1, itime: 10, icycle: 1, }
solver: {iscf: 7, nstep: 100, nline: 4, wfoptalg: 0, }
tolerances: {tolrff: 2.00E-02, }
...

     iter   Etot(hartree)      deltaE(h)  residm     vres2    diffor    maxfor
 ETOT  1  -38.526660325992    -3.853E+01 1.408E-06 4.988E-01 1.749E-02 1.752E-02
 ETOT  2  -38.526869339872    -2.090E-04 4.648E-07 1.704E-01 2.151E-02 5.817E-03
 ETOT  3  -38.527054630761    -1.853E-04 3.259E-06 2.948E-02 5.366E-03 9.558E-03
 ETOT  4  -38.527084479068    -2.985E-05 3.329E-07 2.999E-03 3.638E-03 7.619E-03
 ETOT  5  -38.527084672945    -1.939E-07 1.409E-08 1.110E-03 7.648E-04 7.763E-03
 ETOT  6  -38.527084702274    -2.933E-08 2.345E-09 2.311E-04 4.787E-05 7.715E-03
 ETOT  7  -38.527084704725    -2.452E-09 1.555E-09 3.081E-05 1.945E-05 7.715E-03

 At SCF step    7, forces are sufficiently converged : 
  for the second time, max diff in force=  1.945E-05 is less than < tolrff=  2.000E-02 times max force

 Cartesian components of stress tensor (hartree/bohr^3)
  sigma(1 1)=  4.57788753E-04  sigma(3 2)=  0.00000000E+00
  sigma(2 2)=  4.80766194E-04  sigma(3 1)=  5.47556400E-06
  sigma(3 3)=  4.71802882E-04  sigma(2 1)=  0.00000000E+00


--- !ResultsGS
iteration_state: {dtset: 1, itime: 10, icycle: 1, }
comment   : Summary of ground state results
lattice_vectors:
- [ 15.0000000,   0.0000000,   0.0000000, ]
- [  0.0000000,  15.0000000,   0.0000000, ]
- [  0.0000000,   0.0000000,  15.0000000, ]
lattice_lengths: [  15.00000,   15.00000,   15.00000, ]
lattice_angles: [ 90.000,  90.000,  90.000, ] # degrees, (23, 13, 12)
lattice_volume:   3.3750000E+03
convergence: {deltae: -2.452E-09, res2:  3.081E-05, residm:  1.555E-09, diffor:  1.945E-05, }
etotal    :  -3.85270847E+01
entropy   :   0.00000000E+00
fermie    :  -2.43956865E-01
cartesian_stress_tensor: # hartree/bohr^3
- [  4.57788753E-04,   0.00000000E+00,   5.47556400E-06, ]
- [  0.00000000E+00,   4.80766194E-04,   0.00000000E+00, ]
- [  5.47556400E-06,   0.00000000E+00,   4.71802882E-04, ]
pressure_GPa:  -1.3831E+01
xred      :
- [  0.0000E+00,  -1.0762E-01,   0.0000E+00, Si]
- [ -1.7077E-01,  -2.2742E-01,   7.0314E-03,  O]
- [  1.7077E-01,  -2.2742E-01,  -7.0314E-03,  O]
- [ -2.0206E-03,  -7.1087E-03,  -1.5642E-01,  H]
- [  2.0206E-03,  -7.1087E-03,   1.5642E-01,  H]
- [ -1.7905E-01,  -2.4575E-01,   1.3830E-01,  H]
- [  1.7905E-01,  -2.4575E-01,  -1.3830E-01,  H]
cartesian_forces: # hartree/bohr
- [ -0.00000000E+00,   6.46136469E-03,  -0.00000000E+00, ]
- [ -7.71514430E-03,  -6.22194164E-03,   1.48981898E-03, ]
- [  7.71514430E-03,  -6.22194164E-03,  -1.48981898E-03, ]
- [ -4.13103739E-03,   5.64164243E-03,  -5.95134532E-03, ]
- [  4.13103739E-03,   5.64164243E-03,   5.95134532E-03, ]
- [ -5.71816238E-03,  -2.65038313E-03,  -4.28934722E-03, ]
- [  5.71816238E-03,  -2.65038313E-03,   4.28934722E-03, ]
force_length_stats: {min:   6.46136469E-03, max:   1.00227526E-02, mean:   8.58836342E-03, }
...

 Integrated electronic density in atomic spheres:
 ------------------------------------------------
 Atom  Sphere_radius  Integrated_density
    1        2.00000          2.22178728
    2        2.00000          6.22023123
    3        2.00000          6.22023123
    4        2.00000          1.43635854
    5        2.00000          1.43635854
    6        2.00000          2.87852129
    7        2.00000          2.87852129

---OUTPUT-----------------------------------------------------------------------

 Cartesian coordinates (xcart) [bohr]
  0.00000000000000E+00 -1.61436601327857E+00  0.00000000000000E+00
 -2.56151020318219E+00 -3.41134938514516E+00  1.05471663806113E-01
  2.56151020318221E+00 -3.41134938514516E+00 -1.05471663806113E-01
 -3.03096734055406E-02 -1.06630019432241E-01 -2.34622734413989E+00
  3.03096734055406E-02 -1.06630019432241E-01  2.34622734413989E+00
 -2.68569839090990E+00 -3.68624937966686E+00  2.07452241248082E+00
  2.68569839090992E+00 -3.68624937966686E+00 -2.07452241248082E+00
 Reduced coordinates (xred)
  0.00000000000000E+00 -1.07624400885238E-01  0.00000000000000E+00
 -1.70767346878813E-01 -2.27423292343011E-01  7.03144425374090E-03
  1.70767346878814E-01 -2.27423292343011E-01 -7.03144425374090E-03
 -2.02064489370270E-03 -7.10866796214939E-03 -1.56415156275993E-01
  2.02064489370270E-03 -7.10866796214938E-03  1.56415156275993E-01
 -1.79046559393993E-01 -2.45749958644457E-01  1.38301494165388E-01
  1.79046559393995E-01 -2.45749958644457E-01 -1.38301494165388E-01
 Cartesian forces (fcart) [Ha/bohr]; max,rms= 7.71514E-03 5.01201E-03 (free atoms)
 -0.00000000000000E+00  6.46136469009257E-03 -0.00000000000000E+00
 -7.71514429770677E-03 -6.22194164093871E-03  1.48981897823208E-03
  7.71514429770677E-03 -6.22194164093871E-03 -1.48981897823208E-03
 -4.13103739197468E-03  5.64164242948834E-03 -5.95134532415477E-03
  4.13103739197468E-03  5.64164242948834E-03  5.95134532415477E-03
 -5.71816237940350E-03 -2.65038313359591E-03 -4.28934721650052E-03
  5.71816237940350E-03 -2.65038313359591E-03  4.28934721650052E-03
 Reduced forces (fred)
 -0.00000000000000E+00 -9.69204703513886E-02 -0.00000000000000E+00
  1.15727164465602E-01  9.33291246140806E-02 -2.23472846734812E-02
 -1.15727164465602E-01  9.33291246140806E-02  2.23472846734812E-02
  6.19655608796201E-02 -8.46246364423250E-02  8.92701798623215E-02
 -6.19655608796201E-02 -8.46246364423250E-02 -8.92701798623215E-02
  8.57724356910524E-02  3.97557470039387E-02  6.43402082475078E-02
 -8.57724356910524E-02  3.97557470039387E-02 -6.43402082475078E-02
 Total energy (etotal) [Ha]= -3.85270847047252E+01

 Difference of energy with previous step (new-old):
           Absolute (Ha)=-9.69558E-04
           Relative     =-2.51659E-05

--- Iteration: ( 11/100) Internal Cycle: (1/1)
--------------------------------------------------------------------------------

---SELF-CONSISTENT-FIELD CONVERGENCE--------------------------------------------

--- !BeginCycle
iteration_state: {dtset: 1, itime: 11, icycle: 1, }
solver: {iscf: 7, nstep: 100, nline: 4, wfoptalg: 0, }
tolerances: {tolrff: 2.00E-02, }
...

     iter   Etot(hartree)      deltaE(h)  residm     vres2    diffor    maxfor
 ETOT  1  -38.527340494840    -3.853E+01 1.457E-06 1.061E+00 1.838E-02 2.609E-02
 ETOT  2  -38.527608155440    -2.677E-04 3.107E-07 3.729E-01 2.625E-02 4.450E-03
 ETOT  3  -38.528083132005    -4.750E-04 6.762E-06 4.789E-02 1.351E-02 1.133E-02
 ETOT  4  -38.528112372808    -2.924E-05 4.428E-07 1.110E-02 2.495E-03 9.287E-03
 ETOT  5  -38.528112931926    -5.591E-07 6.866E-08 3.173E-03 4.470E-04 8.840E-03
 ETOT  6  -38.528113018345    -8.642E-08 5.492E-08 3.512E-04 1.913E-04 8.858E-03

 Cartesian components of stress tensor (hartree/bohr^3)
  sigma(1 1)=  4.59729137E-04  sigma(3 2)=  0.00000000E+00
  sigma(2 2)=  4.84126902E-04  sigma(3 1)=  3.43461522E-06
  sigma(3 3)=  4.78567091E-04  sigma(2 1)=  0.00000000E+00


 scprqt:  WARNING -
  nstep=  100 was not enough SCF cycles to converge;
  maximum force difference=  1.913E-04 exceeds tolrff*maxfor=  1.772E-04


--- !ResultsGS
iteration_state: {dtset: 1, itime: 11, icycle: 1, }
comment   : Summary of ground state results
lattice_vectors:
- [ 15.0000000,   0.0000000,   0.0000000, ]
- [  0.0000000,  15.0000000,   0.0000000, ]
- [  0.0000000,   0.0000000,  15.0000000, ]
lattice_lengths: [  15.00000,   15.00000,   15.00000, ]
lattice_angles: [ 90.000,  90.000,  90.000, ] # degrees, (23, 13, 12)
lattice_volume:   3.3750000E+03
convergence: {deltae: -8.642E-08, res2:  3.512E-04, residm:  5.492E-08, diffor:  1.913E-04, }
etotal    :  -3.85281130E+01
entropy   :   0.00000000E+00
fermie    :  -2.43747488E-01
cartesian_stress_tensor: # hartree/bohr^3
- [  4.59729137E-04,   0.00000000E+00,   3.43461522E-06, ]
- [  0.00000000E+00,   4.84126902E-04,   0.00000000E+00, ]
- [  3.43461522E-06,   0.00000000E+00,   4.78567091E-04, ]
pressure_GPa:  -1.3950E+01
xred      :
- [  0.0000E+00,  -1.0665E-01,   0.0000E+00, Si]
- [ -1.7093E-01,  -2.2609E-01,   7.6863E-03,  O]
- [  1.7093E-01,  -2.2609E-01,  -7.6863E-03,  O]
- [ -3.1526E-03,  -6.3558E-03,  -1.5790E-01,  H]
- [  3.1526E-03,  -6.3558E-03,   1.5790E-01,  H]
- [ -1.8287E-01,  -2.4833E-01,   1.3805E-01,  H]
- [  1.8287E-01,  -2.4833E-01,  -1.3805E-01,  H]
cartesian_forces: # hartree/bohr
- [ -0.00000000E+00,   8.20535746E-03,  -0.00000000E+00, ]
- [ -8.85824311E-03,  -8.28471168E-03,   1.18765343E-03, ]
- [  8.85824311E-03,  -8.28471168E-03,  -1.18765343E-03, ]
- [ -4.36210397E-03,   4.67558744E-03,  -2.96319955E-03, ]
- [  4.36210397E-03,   4.67558744E-03,   2.96319955E-03, ]
- [ -3.56014246E-03,  -4.93554491E-04,  -5.08496570E-03, ]
- [  3.56014246E-03,  -4.93554491E-04,   5.08496570E-03, ]
force_length_stats: {min:   6.22696447E-03, max:   1.21866911E-02, mean:   8.44685772E-03, }
...

 Integrated electronic density in atomic spheres:
 ------------------------------------------------
 Atom  Sphere_radius  Integrated_density
    1        2.00000          2.17346357
    2        2.00000          6.21750434
    3        2.00000          6.21750434
    4        2.00000          1.42925814
    5        2.00000          1.42925814
    6        2.00000          2.89865297
    7        2.00000          2.89865297

---OUTPUT-----------------------------------------------------------------------

 Cartesian coordinates (xcart) [bohr]
  0.00000000000000E+00 -1.59973736156711E+00  0.00000000000000E+00
 -2.56400424949790E+00 -3.39132838306636E+00  1.15294393802360E-01
  2.56400424949792E+00 -3.39132838306636E+00 -1.15294393802360E-01
 -4.72886134496095E-02 -9.53367741365146E-02 -2.36843115932214E+00
  4.72886134496095E-02 -9.53367741365145E-02  2.36843115932214E+00
 -2.74302905885238E+00 -3.72487795289712E+00  2.07077466828355E+00
  2.74302905885240E+00 -3.72487795289712E+00 -2.07077466828355E+00
 Reduced coordinates (xred)
  0.00000000000000E+00 -1.06649157437807E-01  0.00000000000000E+00
 -1.70933616633193E-01 -2.26088558871091E-01  7.68629292015731E-03
  1.70933616633195E-01 -2.26088558871091E-01 -7.68629292015731E-03
 -3.15257422997397E-03 -6.35578494243431E-03 -1.57895410621476E-01
  3.15257422997397E-03 -6.35578494243430E-03  1.57895410621476E-01
 -1.82868603923492E-01 -2.48325196859808E-01  1.38051644552236E-01
  1.82868603923494E-01 -2.48325196859808E-01 -1.38051644552236E-01
 Cartesian forces (fcart) [Ha/bohr]; max,rms= 8.85824E-03 5.07678E-03 (free atoms)
 -0.00000000000000E+00  8.20535745769545E-03 -0.00000000000000E+00
 -8.85824311057655E-03 -8.28471167572246E-03  1.18765342742432E-03
  8.85824311057655E-03 -8.28471167572246E-03 -1.18765342742432E-03
 -4.36210396852774E-03  4.67558743808613E-03 -2.96319955417961E-03
  4.36210396852774E-03  4.67558743808613E-03  2.96319955417961E-03
 -3.56014245852870E-03 -4.93554491211399E-04 -5.08496569616148E-03
  3.56014245852870E-03 -4.93554491211399E-04  5.08496569616148E-03
 Reduced forces (fred)
 -0.00000000000000E+00 -1.23080361865432E-01 -0.00000000000000E+00
  1.32873646658648E-01  1.24270675135837E-01 -1.78148014113647E-02
 -1.32873646658648E-01  1.24270675135837E-01  1.78148014113647E-02
  6.54315595279162E-02 -7.01338115712919E-02  4.44479933126941E-02
 -6.54315595279162E-02 -7.01338115712919E-02 -4.44479933126941E-02
  5.34021368779305E-02  7.40331736817099E-03  7.62744854424222E-02
 -5.34021368779305E-02  7.40331736817099E-03 -7.62744854424222E-02
 Total energy (etotal) [Ha]= -3.85281130183453E+01

 Difference of energy with previous step (new-old):
           Absolute (Ha)=-1.02831E-03
           Relative     =-2.66903E-05

--- Iteration: ( 12/100) Internal Cycle: (1/1)
--------------------------------------------------------------------------------

---SELF-CONSISTENT-FIELD CONVERGENCE--------------------------------------------

--- !BeginCycle
iteration_state: {dtset: 1, itime: 12, icycle: 1, }
solver: {iscf: 7, nstep: 100, nline: 4, wfoptalg: 0, }
tolerances: {tolrff: 2.00E-02, }
...

     iter   Etot(hartree)      deltaE(h)  residm     vres2    diffor    maxfor
 ETOT  1  -38.525767078250    -3.853E+01 9.442E-07 5.219E+00 5.692E-02 6.513E-02
 ETOT  2  -38.527309620266    -1.543E-03 3.350E-07 1.362E+00 8.563E-02 2.050E-02
 ETOT  3  -38.529013046432    -1.703E-03 2.980E-05 2.177E-01 3.104E-02 1.054E-02
 ETOT  4  -38.529153782483    -1.407E-04 1.945E-06 5.007E-02 4.024E-03 6.730E-03
 ETOT  5  -38.529156817065    -3.035E-06 5.431E-07 1.057E-02 1.840E-03 5.880E-03
 ETOT  6  -38.529157086586    -2.695E-07 2.266E-07 1.313E-03 2.628E-04 5.846E-03

 Cartesian components of stress tensor (hartree/bohr^3)
  sigma(1 1)=  4.70076400E-04  sigma(3 2)=  0.00000000E+00
  sigma(2 2)=  4.91773045E-04  sigma(3 1)=  1.24058822E-06
  sigma(3 3)=  4.86100195E-04  sigma(2 1)=  0.00000000E+00


 scprqt:  WARNING -
  nstep=  100 was not enough SCF cycles to converge;
  maximum force difference=  2.628E-04 exceeds tolrff*maxfor=  1.169E-04


--- !ResultsGS
iteration_state: {dtset: 1, itime: 12, icycle: 1, }
comment   : Summary of ground state results
lattice_vectors:
- [ 15.0000000,   0.0000000,   0.0000000, ]
- [  0.0000000,  15.0000000,   0.0000000, ]
- [  0.0000000,   0.0000000,  15.0000000, ]
lattice_lengths: [  15.00000,   15.00000,   15.00000, ]
lattice_angles: [ 90.000,  90.000,  90.000, ] # degrees, (23, 13, 12)
lattice_volume:   3.3750000E+03
convergence: {deltae: -2.695E-07, res2:  1.313E-03, residm:  2.266E-07, diffor:  2.628E-04, }
etotal    :  -3.85291571E+01
entropy   :   0.00000000E+00
fermie    :  -2.42591672E-01
cartesian_stress_tensor: # hartree/bohr^3
- [  4.70076400E-04,   0.00000000E+00,   1.24058822E-06, ]
- [  0.00000000E+00,   4.91773045E-04,   0.00000000E+00, ]
- [  1.24058822E-06,   0.00000000E+00,   4.86100195E-04, ]
pressure_GPa:  -1.4200E+01
xred      :
- [  0.0000E+00,  -1.0507E-01,   0.0000E+00, Si]
- [ -1.7191E-01,  -2.2528E-01,   8.4240E-03,  O]
- [  1.7191E-01,  -2.2528E-01,  -8.4240E-03,  O]
- [ -4.9901E-03,  -4.8219E-03,  -1.6023E-01,  H]
- [  4.9901E-03,  -4.8219E-03,   1.6023E-01,  H]
- [ -1.8778E-01,  -2.5145E-01,   1.3732E-01,  H]
- [  1.8778E-01,  -2.5145E-01,  -1.3732E-01,  H]
cartesian_forces: # hartree/bohr
- [ -0.00000000E+00,   4.41665489E-03,  -0.00000000E+00, ]
- [ -5.47932886E-03,  -5.84552082E-03,  -9.21656569E-04, ]
- [  5.47932886E-03,  -5.84552082E-03,   9.21656569E-04, ]
- [ -4.29043111E-03,   2.40614483E-03,   1.83941897E-03, ]
- [  4.29043111E-03,   2.40614483E-03,  -1.83941897E-03, ]
- [ -1.26949262E-03,   1.23104855E-03,  -4.06853131E-03, ]
- [  1.26949262E-03,   1.23104855E-03,   4.06853131E-03, ]
force_length_stats: {min:   4.41665489E-03, max:   8.06489983E-03, mean:   5.70319666E-03, }
...

 Integrated electronic density in atomic spheres:
 ------------------------------------------------
 Atom  Sphere_radius  Integrated_density
    1        2.00000          2.11660573
    2        2.00000          6.20823090
    3        2.00000          6.20823090
    4        2.00000          1.41439626
    5        2.00000          1.41439626
    6        2.00000          2.85147354
    7        2.00000          2.85147354

---OUTPUT-----------------------------------------------------------------------

 Cartesian coordinates (xcart) [bohr]
  0.00000000000000E+00 -1.57603194200473E+00  0.00000000000000E+00
 -2.57858253478869E+00 -3.37925196359020E+00  1.26359982848194E-01
  2.57858253478871E+00 -3.37925196359020E+00 -1.26359982848194E-01
 -7.48520668674967E-02 -7.23288522140569E-02 -2.40337952279390E+00
  7.48520668674967E-02 -7.23288522140567E-02  2.40337952279390E+00
 -2.81672073665619E+00 -3.77181500407693E+00  2.05987097568670E+00
  2.81672073665621E+00 -3.77181500407693E+00 -2.05987097568670E+00
 Reduced coordinates (xred)
  0.00000000000000E+00 -1.05068796133648E-01  0.00000000000000E+00
 -1.71905502319246E-01 -2.25283464239347E-01  8.42399885654625E-03
  1.71905502319247E-01 -2.25283464239347E-01 -8.42399885654625E-03
 -4.99013779116645E-03 -4.82192348093713E-03 -1.60225301519593E-01
  4.99013779116644E-03 -4.82192348093711E-03  1.60225301519593E-01
 -1.87781382443746E-01 -2.51454333605128E-01  1.37324731712446E-01
  1.87781382443747E-01 -2.51454333605128E-01 -1.37324731712446E-01
 Cartesian forces (fcart) [Ha/bohr]; max,rms= 5.84552E-03 3.40947E-03 (free atoms)
 -0.00000000000000E+00  4.41665489122591E-03 -0.00000000000000E+00
 -5.47932886340730E-03 -5.84552082438763E-03 -9.21656569497150E-04
  5.47932886340730E-03 -5.84552082438763E-03  9.21656569497150E-04
 -4.29043111249176E-03  2.40614483208084E-03  1.83941896619528E-03
  4.29043111249176E-03  2.40614483208084E-03 -1.83941896619528E-03
[...]
 -9.85500636628043E-01 -8.22187654067151E-01  1.17415642052620E+00
 -8.56038362587367E-02  2.20848121060992E-02  7.90879006197031E-02
  8.56038362587367E-02  2.20848121060992E-02 -7.90879006197031E-02
  1.10698542155956E+00 -5.26032512261200E-02  1.09710704014326E-01
 -1.10698542155956E+00 -5.26032512261200E-02 -1.09710704014326E-01
 Total energy (etotal) [Ha]= -3.80037205463442E+01

 Difference of energy with previous step (new-old):
           Absolute (Ha)=-1.29449E+00
           Relative     =-3.46523E-02

--- Iteration: ( 54/100) Internal Cycle: (1/1)
--------------------------------------------------------------------------------

---SELF-CONSISTENT-FIELD CONVERGENCE--------------------------------------------

--- !BeginCycle
iteration_state: {dtset: 1, itime: 54, icycle: 1, }
solver: {iscf: 7, nstep: 100, nline: 4, wfoptalg: 0, }
tolerances: {tolrff: 2.00E-02, }
...

     iter   Etot(hartree)      deltaE(h)  residm     vres2    diffor    maxfor
 ETOT  1  -29.296363585988    -2.930E+01 3.231E-01 2.833E+04 2.536E-01 3.193E-01
 ETOT  2  -26.774315032417     2.522E+00 1.697E-03 2.063E+04 2.646E-01 2.858E-01
 ETOT  3  -35.436856847428    -8.663E+00 1.655E-01 7.289E+03 3.384E-01 1.798E-01
 ETOT  4  -36.793512197961    -1.357E+00 4.766E-03 4.397E+03 3.515E-02 1.642E-01
 ETOT  5  -37.024398493425    -2.309E-01 1.174E-03 2.774E+03 2.195E-02 1.559E-01
 ETOT  6  -34.366337852752     2.658E+00 7.372E-03 7.137E+03 1.945E-01 1.081E-01
 ETOT  7  -37.204318393282    -2.838E+00 3.660E-03 1.821E+03 1.812E-01 1.425E-01
 ETOT  8  -37.363229733739    -1.589E-01 1.861E-04 1.209E+03 1.109E-02 1.314E-01
 ETOT  9  -37.745417803674    -3.822E-01 5.593E-04 1.499E+02 4.565E-02 9.040E-02
 ETOT 10  -37.723219156737     2.220E-02 6.451E-06 2.240E+02 6.535E-03 9.694E-02
 ETOT 11  -37.622813121533     1.004E-01 7.307E-05 2.833E+02 2.692E-02 7.002E-02
 ETOT 12  -37.585169466678     3.764E-02 5.306E-05 3.563E+02 5.427E-03 6.459E-02
 ETOT 13  -37.586557330452    -1.388E-03 2.006E-05 3.633E+02 3.952E-03 6.855E-02

 Cartesian components of stress tensor (hartree/bohr^3)
  sigma(1 1)=  6.36613099E-04  sigma(3 2)=  0.00000000E+00
  sigma(2 2)=  6.26790762E-04  sigma(3 1)= -9.18785797E-05
  sigma(3 3)=  5.42311629E-04  sigma(2 1)=  0.00000000E+00


 scprqt:  WARNING -
  nstep=  100 was not enough SCF cycles to converge;
  maximum force difference=  3.952E-03 exceeds tolrff*maxfor=  1.371E-03


--- !ResultsGS
iteration_state: {dtset: 1, itime: 54, icycle: 1, }
comment   : Summary of ground state results
lattice_vectors:
- [ 15.0000000,   0.0000000,   0.0000000, ]
- [  0.0000000,  15.0000000,   0.0000000, ]
- [  0.0000000,   0.0000000,  15.0000000, ]
lattice_lengths: [  15.00000,   15.00000,   15.00000, ]
lattice_angles: [ 90.000,  90.000,  90.000, ] # degrees, (23, 13, 12)
lattice_volume:   3.3750000E+03
convergence: {deltae: -1.388E-03, res2:  3.633E+02, residm:  2.006E-05, diffor:  3.952E-03, }
etotal    :  -3.75865573E+01
entropy   :   0.00000000E+00
fermie    :  -1.92312819E-01
cartesian_stress_tensor: # hartree/bohr^3
- [  6.36613099E-04,   0.00000000E+00,  -9.18785797E-05, ]
- [  0.00000000E+00,   6.26790762E-04,   0.00000000E+00, ]
- [ -9.18785797E-05,   0.00000000E+00,   5.42311629E-04, ]
pressure_GPa:  -1.7709E+01
xred      :
- [  0.0000E+00,   1.9040E+01,   0.0000E+00, Si]
- [ -5.4959E+01,   1.2139E+02,  -6.8684E+01,  O]
- [  5.4959E+01,   1.2139E+02,   6.8684E+01,  O]
- [  1.4811E+02,  -1.7793E+02,  -1.0303E+01,  H]
- [ -1.4811E+02,  -1.7793E+02,   1.0303E+01,  H]
- [  1.1079E+02,   4.6484E+01,  -6.8270E+01,  H]
- [ -1.1079E+02,   4.6484E+01,   6.8270E+01,  H]
cartesian_forces: # hartree/bohr
- [ -0.00000000E+00,   4.25251147E-03,  -0.00000000E+00, ]
- [  6.64068736E-02,   3.29242456E-02,   2.32581112E-03, ]
- [ -6.64068736E-02,   3.29242456E-02,  -2.32581112E-03, ]
- [ -3.49171233E-03,  -1.96261449E-03,   1.25220502E-02, ]
- [  3.49171233E-03,  -1.96261449E-03,  -1.25220502E-02, ]
- [  6.85455564E-02,  -3.30878868E-02,  -2.76683772E-02, ]
- [ -6.85455564E-02,  -3.30878868E-02,   2.76683772E-02, ]
force_length_stats: {min:   4.25251147E-03, max:   8.09866696E-02, mean:   4.86906254E-02, }
...

 Integrated electronic density in atomic spheres:
 ------------------------------------------------
 Atom  Sphere_radius  Integrated_density
    1        2.00000          1.17727932
    2        2.00000          5.19715508
    3        2.00000          5.19715508
    4        2.00000          1.22766638
    5        2.00000          1.22766638
    6        2.00000          0.98591555
    7        2.00000          0.98591555

---OUTPUT-----------------------------------------------------------------------

 Cartesian coordinates (xcart) [bohr]
  0.00000000000000E+00  2.85598329694244E+02  0.00000000000000E+00
 -8.24392496779026E+02  1.82092237770977E+03 -1.03026323267925E+03
  8.24392496779026E+02  1.82092237770977E+03  1.03026323267925E+03
  2.22159305977071E+03 -2.66899433558046E+03 -1.54542023491959E+02
 -2.22159305977071E+03 -2.66899433558046E+03  1.54542023491959E+02
  1.66180992878186E+03  6.97261381235340E+02 -1.02405266856198E+03
 -1.66180992878186E+03  6.97261381235340E+02  1.02405266856198E+03
 Reduced coordinates (xred)
  0.00000000000000E+00  1.90398886462829E+01  0.00000000000000E+00
 -5.49594997852684E+01  1.21394825180652E+02 -6.86842155119497E+01
  5.49594997852684E+01  1.21394825180652E+02  6.86842155119497E+01
  1.48106203984714E+02 -1.77932955705364E+02 -1.03028015661306E+01
 -1.48106203984714E+02 -1.77932955705364E+02  1.03028015661306E+01
  1.10787328585458E+02  4.64840920823560E+01 -6.82701779041322E+01
 -1.10787328585458E+02  4.64840920823560E+01  6.82701779041322E+01
 Cartesian forces (fcart) [Ha/bohr]; max,rms= 6.85456E-02 3.41426E-02 (free atoms)
 -0.00000000000000E+00  4.25251147343486E-03 -0.00000000000000E+00
  6.64068736253251E-02  3.29242455581950E-02  2.32581112477803E-03
 -6.64068736253251E-02  3.29242455581950E-02 -2.32581112477803E-03
 -3.49171232579191E-03 -1.96261449463525E-03  1.25220501504509E-02
  3.49171232579191E-03 -1.96261449463525E-03 -1.25220501504509E-02
  6.85455563872737E-02 -3.30878868002772E-02 -2.76683771889623E-02
 -6.85455563872737E-02 -3.30878868002772E-02  2.76683771889623E-02
 Reduced forces (fred)
 -0.00000000000000E+00 -6.37876721015229E-02 -0.00000000000000E+00
 -9.96103104379877E-01 -4.93863683372925E-01 -3.48871668716704E-02
  9.96103104379877E-01 -4.93863683372925E-01  3.48871668716704E-02
  5.23756848868786E-02  2.94392174195287E-02 -1.87830752256763E-01
 -5.23756848868786E-02  2.94392174195287E-02  1.87830752256763E-01
 -1.02818334580910E+00  4.96318302004157E-01  4.15025657834435E-01
  1.02818334580910E+00  4.96318302004157E-01 -4.15025657834435E-01
 Total energy (etotal) [Ha]= -3.75865573304523E+01

 Difference of energy with previous step (new-old):
           Absolute (Ha)= 4.17163E-01
           Relative     = 1.10375E-02

--- Iteration: ( 55/100) Internal Cycle: (1/1)
--------------------------------------------------------------------------------

---SELF-CONSISTENT-FIELD CONVERGENCE--------------------------------------------

--- !BeginCycle
iteration_state: {dtset: 1, itime: 55, icycle: 1, }
solver: {iscf: 7, nstep: 100, nline: 4, wfoptalg: 0, }
tolerances: {tolrff: 2.00E-02, }
...

     iter   Etot(hartree)      deltaE(h)  residm     vres2    diffor    maxfor
 ETOT  1  -34.414020603248    -3.441E+01 3.737E-02 5.674E+03 6.845E+00 6.776E+00
 ETOT  2  -32.909266241743     1.505E+00 2.067E-03 6.480E+03 5.033E-01 6.941E+00
 ETOT  3  -36.175185548199    -3.266E+00 5.432E-03 9.889E+02 2.950E-01 6.936E+00
 ETOT  4  -36.477405380268    -3.022E-01 8.393E-04 2.534E+02 2.731E-02 6.932E+00
 ETOT  5  -36.521184511943    -4.378E-02 4.207E-04 1.476E+02 1.474E-02 6.934E+00

 At SCF step    5, forces are sufficiently converged : 
  for the second time, max diff in force=  1.474E-02 is less than < tolrff=  2.000E-02 times max force

 Cartesian components of stress tensor (hartree/bohr^3)
  sigma(1 1)= -1.95876889E-04  sigma(3 2)=  0.00000000E+00
  sigma(2 2)=  6.32617192E-04  sigma(3 1)=  9.41060810E-05
  sigma(3 3)=  4.14612094E-04  sigma(2 1)=  0.00000000E+00


--- !ResultsGS
iteration_state: {dtset: 1, itime: 55, icycle: 1, }
comment   : Summary of ground state results
lattice_vectors:
- [ 15.0000000,   0.0000000,   0.0000000, ]
- [  0.0000000,  15.0000000,   0.0000000, ]
- [  0.0000000,   0.0000000,  15.0000000, ]
lattice_lengths: [  15.00000,   15.00000,   15.00000, ]
lattice_angles: [ 90.000,  90.000,  90.000, ] # degrees, (23, 13, 12)
lattice_volume:   3.3750000E+03
convergence: {deltae: -4.378E-02, res2:  1.476E+02, residm:  4.207E-04, diffor:  1.474E-02, }
etotal    :  -3.65211845E+01
entropy   :   0.00000000E+00
fermie    :  -2.27266645E-01
cartesian_stress_tensor: # hartree/bohr^3
- [ -1.95876889E-04,   0.00000000E+00,   9.41060810E-05, ]
- [  0.00000000E+00,   6.32617192E-04,   0.00000000E+00, ]
- [  9.41060810E-05,   0.00000000E+00,   4.14612094E-04, ]
pressure_GPa:  -8.3492E+00
xred      :
- [  0.0000E+00,   1.5917E+01,   0.0000E+00, Si]
- [ -4.8740E+01,   1.0690E+02,  -5.7262E+01,  O]
- [  4.8740E+01,   1.0690E+02,   5.7262E+01,  O]
- [  1.2914E+02,  -1.5495E+02,  -9.9308E+00,  H]
- [ -1.2914E+02,  -1.5495E+02,   9.9308E+00,  H]
- [  9.6488E+01,   3.9564E+01,  -5.6998E+01,  H]
- [ -9.6488E+01,   3.9564E+01,   5.6998E+01,  H]
cartesian_forces: # hartree/bohr
- [ -0.00000000E+00,   6.22662953E-02,  -0.00000000E+00, ]
- [ -2.26202241E-02,  -7.88642967E-03,   2.89397209E-02, ]
- [  2.26202241E-02,  -7.88642967E-03,  -2.89397209E-02, ]
- [ -1.83652559E-02,  -2.54312810E-02,  -5.67314443E-03, ]
- [  1.83652559E-02,  -2.54312810E-02,   5.67314443E-03, ]
- [ -6.93418095E+00,   2.18456300E-03,   1.02550638E+00, ]
- [  6.93418095E+00,   2.18456300E-03,  -1.02550638E+00, ]
force_length_stats: {min:   3.18781625E-02, max:   7.00960295E+00, mean:   2.03148073E+00, }
...

 Integrated electronic density in atomic spheres:
 ------------------------------------------------
 Atom  Sphere_radius  Integrated_density
    1        2.00000          1.58062737
    2        2.00000          5.20917371
    3        2.00000          5.20917371
    4        2.00000          1.24383485
    5        2.00000          1.24383485
    6        2.00000          1.82342814
    7        2.00000          1.82342814

---OUTPUT-----------------------------------------------------------------------

 Cartesian coordinates (xcart) [bohr]
  0.00000000000000E+00  2.38760897758837E+02  0.00000000000000E+00
 -7.31096146540095E+02  1.60345881760638E+03 -8.58929177781923E+02
  7.31096146540095E+02  1.60345881760638E+03  8.58929177781923E+02
  1.93714100961058E+03 -2.32431118341514E+03 -1.48961647427420E+02
 -1.93714100961058E+03 -2.32431118341514E+03  1.48961647427420E+02
  1.44732045143318E+03  5.93460505140711E+02 -8.54973442262998E+02
 -1.44732045143318E+03  5.93460505140711E+02  8.54973442262998E+02
 Reduced coordinates (xred)
  0.00000000000000E+00  1.59173931839224E+01  0.00000000000000E+00
 -4.87397431026730E+01  1.06897254507092E+02 -5.72619451854615E+01
  4.87397431026730E+01  1.06897254507092E+02  5.72619451854615E+01
  1.29142733974039E+02 -1.54954078894343E+02 -9.93077649516130E+00
 -1.29142733974039E+02 -1.54954078894343E+02  9.93077649516130E+00
  9.64880300955454E+01  3.95640336760474E+01 -5.69982294841999E+01
 -9.64880300955454E+01  3.95640336760474E+01  5.69982294841999E+01
 Cartesian forces (fcart) [Ha/bohr]; max,rms= 6.93418E+00 2.16331E+00 (free atoms)
 -0.00000000000000E+00  6.22662953173632E-02 -0.00000000000000E+00
 -2.26202241408679E-02 -7.88642966990367E-03  2.89397209149475E-02
  2.26202241408679E-02 -7.88642966990367E-03 -2.89397209149475E-02
 -1.83652559134121E-02 -2.54312809862074E-02 -5.67314442710241E-03
  1.83652559134121E-02 -2.54312809862074E-02  5.67314442710241E-03
 -6.93418094761851E+00  2.18456299742950E-03  1.02550638471128E+00
  6.93418094761851E+00  2.18456299742950E-03 -1.02550638471128E+00
 Reduced forces (fred)
 -0.00000000000000E+00 -9.33994429760448E-01 -0.00000000000000E+00
  3.39303362113018E-01  1.18296445048555E-01 -4.34095813724212E-01
 -3.39303362113018E-01  1.18296445048555E-01  4.34095813724212E-01
  2.75478838701182E-01  3.81469214793111E-01  8.50971664065361E-02
 -2.75478838701182E-01  3.81469214793111E-01 -8.50971664065361E-02
  1.04012714214278E+02 -3.27684449614425E-02 -1.53825957706691E+01
 -1.04012714214278E+02 -3.27684449614425E-02  1.53825957706691E+01
 Total energy (etotal) [Ha]= -3.65211845119428E+01

 Difference of energy with previous step (new-old):
           Absolute (Ha)= 1.06537E+00
           Relative     = 2.87520E-02

--- Iteration: ( 56/100) Internal Cycle: (1/1)
--------------------------------------------------------------------------------

---SELF-CONSISTENT-FIELD CONVERGENCE--------------------------------------------

--- !BeginCycle
iteration_state: {dtset: 1, itime: 56, icycle: 1, }
solver: {iscf: 7, nstep: 100, nline: 4, wfoptalg: 0, }
tolerances: {tolrff: 2.00E-02, }
...

     iter   Etot(hartree)      deltaE(h)  residm     vres2    diffor    maxfor
 ETOT  1  -34.639118168629    -3.464E+01 1.867E-01 1.026E+04 6.979E+00 2.860E-01
 ETOT  2  -30.232086792768     4.407E+00 8.121E-03 1.481E+04 6.186E-01 5.220E-01
 ETOT  3  -36.446186770778    -6.214E+00 4.195E-02 4.743E+03 7.464E-01 2.243E-01
 ETOT  4  -37.057490495822    -6.113E-01 1.314E-03 3.229E+03 7.117E-02 2.055E-01
 ETOT  5  -37.065891772416    -8.401E-03 9.827E-04 3.090E+03 1.802E-03 2.073E-01
 ETOT  6  -36.993927818841     7.196E-02 3.206E-03 2.212E+03 3.030E-01 9.574E-02
 ETOT  7  -37.853931738391    -8.600E-01 1.017E-03 1.804E+02 4.935E-02 4.918E-02
 ETOT  8  -37.399480654495     4.545E-01 2.100E-04 1.210E+03 2.817E-02 5.309E-02
 ETOT  9  -37.566775813364    -1.673E-01 6.258E-06 8.359E+02 1.620E-02 6.369E-02
 ETOT 10  -37.847127491299    -2.804E-01 7.253E-05 1.698E+02 3.576E-02 3.221E-02
 ETOT 11  -37.905971417987    -5.884E-02 7.424E-06 1.158E+01 4.411E-03 3.439E-02
 ETOT 12  -37.896240794154     9.731E-03 1.037E-05 3.732E+01 1.327E-02 2.112E-02

 Cartesian components of stress tensor (hartree/bohr^3)
  sigma(1 1)=  4.84057183E-04  sigma(3 2)=  0.00000000E+00
  sigma(2 2)=  5.22908384E-04  sigma(3 1)= -1.30565007E-05
  sigma(3 3)=  5.07041451E-04  sigma(2 1)=  0.00000000E+00


 scprqt:  WARNING -
  nstep=  100 was not enough SCF cycles to converge;
  maximum force difference=  1.327E-02 exceeds tolrff*maxfor=  4.224E-04


--- !ResultsGS
iteration_state: {dtset: 1, itime: 56, icycle: 1, }
comment   : Summary of ground state results
lattice_vectors:
- [ 15.0000000,   0.0000000,   0.0000000, ]
- [  0.0000000,  15.0000000,   0.0000000, ]
- [  0.0000000,   0.0000000,  15.0000000, ]
lattice_lengths: [  15.00000,   15.00000,   15.00000, ]
lattice_angles: [ 90.000,  90.000,  90.000, ] # degrees, (23, 13, 12)
lattice_volume:   3.3750000E+03
convergence: {deltae:  9.731E-03, res2:  3.732E+01, residm:  1.037E-05, diffor:  1.327E-02, }
etotal    :  -3.78962408E+01
entropy   :   0.00000000E+00
fermie    :  -1.88455527E-01
cartesian_stress_tensor: # hartree/bohr^3
- [  4.84057183E-04,   0.00000000E+00,  -1.30565007E-05, ]
- [  0.00000000E+00,   5.22908384E-04,   0.00000000E+00, ]
- [ -1.30565007E-05,   0.00000000E+00,   5.07041451E-04, ]
pressure_GPa:  -1.4848E+01
xred      :
- [  0.0000E+00,   1.9011E+01,   0.0000E+00, Si]
- [ -5.4895E+01,   1.2126E+02,  -6.8580E+01,  O]
- [  5.4895E+01,   1.2126E+02,   6.8580E+01,  O]
- [  1.4793E+02,  -1.7771E+02,  -1.0295E+01,  H]
- [ -1.4793E+02,  -1.7771E+02,   1.0295E+01,  H]
- [  1.1065E+02,   4.6416E+01,  -6.8168E+01,  H]
- [ -1.1065E+02,   4.6416E+01,   6.8168E+01,  H]
cartesian_forces: # hartree/bohr
- [ -0.00000000E+00,   1.48851762E-02,  -0.00000000E+00, ]
- [ -1.81773427E-02,  -1.26363188E-02,   2.11221972E-02, ]
- [  1.81773427E-02,  -1.26363188E-02,  -2.11221972E-02, ]
- [  1.07927957E-02,   1.16704786E-02,  -6.02016194E-03, ]
- [ -1.07927957E-02,   1.16704786E-02,   6.02016194E-03, ]
- [  5.38180583E-03,  -6.47674794E-03,  -1.16224261E-03, ]
- [ -5.38180583E-03,  -6.47674794E-03,   1.16224261E-03, ]
force_length_stats: {min:   8.50075913E-03, max:   3.05980319E-02, mean:   1.81540651E-02, }
...

 Integrated electronic density in atomic spheres:
 ------------------------------------------------
 Atom  Sphere_radius  Integrated_density
    1        2.00000          1.36368855
    2        2.00000          5.77175490
    3        2.00000          5.77175490
    4        2.00000          2.82230209
    5        2.00000          2.82230209
    6        2.00000          0.77097125
    7        2.00000          0.77097125

---OUTPUT-----------------------------------------------------------------------

 Cartesian coordinates (xcart) [bohr]
  0.00000000000000E+00  2.85165111334473E+02  0.00000000000000E+00
 -8.23421328074189E+02  1.81882839761251E+03 -1.02870381289250E+03
  8.23421328074189E+02  1.81882839761251E+03  1.02870381289250E+03
  2.21887861026084E+03 -2.66566311504056E+03 -1.54419551731147E+02
 -2.21887861026084E+03 -2.66566311504056E+03  1.54419551731147E+02
  1.65971661817126E+03  6.96240749972585E+02 -1.02252025701543E+03
 -1.65971661817126E+03  6.96240749972585E+02  1.02252025701543E+03
 Reduced coordinates (xred)
  0.00000000000000E+00  1.90110074222982E+01  0.00000000000000E+00
 -5.48947552049459E+01  1.21255226507500E+02 -6.85802541928335E+01
  5.48947552049459E+01  1.21255226507500E+02  6.85802541928335E+01
  1.47925240684056E+02 -1.77710874336037E+02 -1.02946367820765E+01
 -1.47925240684056E+02 -1.77710874336037E+02  1.02946367820765E+01
  1.10647774544751E+02  4.64160499981723E+01 -6.81680171343619E+01
 -1.10647774544751E+02  4.64160499981723E+01  6.81680171343619E+01
 Cartesian forces (fcart) [Ha/bohr]; max,rms= 2.11222E-02 1.15808E-02 (free atoms)
 -0.00000000000000E+00  1.48851762455906E-02 -0.00000000000000E+00
 -1.81773427489337E-02 -1.26363188108936E-02  2.11221972456926E-02
  1.81773427489337E-02 -1.26363188108936E-02 -2.11221972456926E-02
  1.07927957420148E-02  1.16704786314399E-02 -6.02016193663297E-03
 -1.07927957420148E-02  1.16704786314399E-02  6.02016193663297E-03
  5.38180583243300E-03 -6.47674794334156E-03 -1.16224261248018E-03
 -5.38180583243300E-03 -6.47674794334156E-03  1.16224261248018E-03
 Reduced forces (fred)
 -0.00000000000000E+00 -2.23277643683858E-01 -0.00000000000000E+00
  2.72660141234005E-01  1.89544782163404E-01 -3.16832958685389E-01
 -2.72660141234005E-01  1.89544782163404E-01  3.16832958685389E-01
 -1.61891936130223E-01 -1.75057179471598E-01  9.03024290494946E-02
  1.61891936130223E-01 -1.75057179471598E-01 -9.03024290494946E-02
 -8.07270874864950E-02  9.71512191501233E-02  1.74336391872026E-02
  8.07270874864950E-02  9.71512191501233E-02 -1.74336391872026E-02
 Total energy (etotal) [Ha]= -3.78962407941542E+01

 Difference of energy with previous step (new-old):
           Absolute (Ha)=-1.37506E+00
           Relative     =-3.69552E-02

--- Iteration: ( 57/100) Internal Cycle: (1/1)
--------------------------------------------------------------------------------

---SELF-CONSISTENT-FIELD CONVERGENCE--------------------------------------------

--- !BeginCycle
iteration_state: {dtset: 1, itime: 57, icycle: 1, }
solver: {iscf: 7, nstep: 100, nline: 4, wfoptalg: 0, }
tolerances: {tolrff: 2.00E-02, }
...

     iter   Etot(hartree)      deltaE(h)  residm     vres2    diffor    maxfor
 ETOT  1  -34.862862506590    -3.486E+01 9.317E-04 9.116E+03 1.578E-01 1.518E-01
 ETOT  2  -34.077153709742     7.857E-01 2.652E-04 9.390E+03 4.290E-01 2.915E-01
 ETOT  3  -37.531924400899    -3.455E+00 8.570E-03 1.367E+03 2.269E-01 7.524E-02
 ETOT  4  -37.652315266284    -1.204E-01 3.905E-04 8.294E+02 2.804E-02 5.013E-02
 ETOT  5  -37.591613091614     6.070E-02 8.540E-04 7.799E+02 3.673E-02 3.252E-02
 ETOT  6  -37.464206968149     1.274E-01 1.207E-04 1.160E+03 6.330E-02 4.179E-02
 ETOT  7  -37.747611239937    -2.834E-01 1.062E-04 3.946E+02 4.783E-02 2.944E-02
