
.Version 9.2.2 of ABINIT 
.(MPI version, prepared for a x86_64_darwin19.6.0_gnu10.2 computer) 

.Copyright (C) 1998-2020 ABINIT group . 
 ABINIT comes with ABSOLUTELY NO WARRANTY.
 It is free software, and you are welcome to redistribute it
 under certain conditions (GNU General Public License,
 see ~abinit/COPYING or http://www.gnu.org/copyleft/gpl.txt).

 ABINIT is a project of the Universite Catholique de Louvain,
 Corning Inc. and other collaborators, see ~abinit/doc/developers/contributors.txt .
 Please read https://docs.abinit.org/theory/acknowledgments for suggested
 acknowledgments of the ABINIT effort.
 For more information, see https://www.abinit.org .

.Starting date : Thu 11 Mar 2021.
- ( at 21h49 )
  
- input  file    -> sth1_relax.in
- output file    -> sth1_relax.abo
- root for input  files -> sth1_relaxi
- root for output files -> sth1_relaxo


 DATASET    1 : space group P-4 3 m (#215); Bravais cP (primitive cubic)
================================================================================
 Values of the parameters that define the memory need for DATASET  1.
     intxc =       0    ionmov =       0      iscf =       7    lmnmax =       6
     lnmax =       6     mgfft =      30  mpssoang =       3    mqgrid =    3001
     natom =      21  nloc_mem =       1    nspden =       2   nspinor =       1
    nsppol =       2      nsym =      24    n1xccc =    2501    ntypat =       3
    occopt =       3   xclevel =       1
-    mband =         100        mffmem =           1         mkmem =           1
       mpw =        1328          nfft =       27000          nkpt =           1
================================================================================
P This job should need less than                      19.205 Mbytes of memory.
  Rough estimation (10% accuracy) of disk space for files :
_ WF disk file :      4.055 Mbytes ; DEN or POT disk file :      0.414 Mbytes.
================================================================================

--------------------------------------------------------------------------------
------------- Echo of variables that govern the present computation ------------
--------------------------------------------------------------------------------
-
- outvars: echo of selected default values                                      
-   iomode0 =  0 , fftalg0 =312 , wfoptalg0 =  0
-
- outvars: echo of global parameters not present in the input file              
-  max_nthreads =    8
-
 -outvars: echo values of preprocessed input variables --------
            acell      1.5000000000E+01  1.5000000000E+01  1.5000000000E+01 Bohr
              amu      1.00794000E+00  1.59994000E+01  2.80855000E+01
           charge      1.00000000E+00
           diemac      1.20000000E+01
             ecut      4.00000000E+00 Hartree
-          fftalg         312
           istwfk        1
              ixc       -1012
           jdtset        1
              kpt      5.00000000E-01  5.00000000E-01  5.00000000E-01
         kptrlatt        1    0    0      0    1    0      0    0    1
          kptrlen      1.50000000E+01
P           mkmem           1
            natom          21
            nband         100
           ndtset           1
            ngfft          30      30      30
             nkpt           1
           nspden           2
           nsppol           2
            nstep         100
             nsym          24
           ntypat           3
              occ      1.000000  1.000000  1.000000  1.000000  1.000000  1.000000
                       1.000000  1.000000  1.000000  1.000000  1.000000  1.000000
                       1.000000  1.000000  1.000000  1.000000  1.000000  1.000000
                       1.000000  1.000000  1.000000  1.000000  1.000000  1.000000
                       1.000000  1.000000  1.000000  1.000000  0.000000  0.000000
                       0.000000  0.000000  0.000000  0.000000  0.000000  0.000000
                       0.000000  0.000000  0.000000  0.000000  0.000000  0.000000
                       0.000000  0.000000  0.000000  0.000000  0.000000  0.000000
                       0.000000  0.000000  0.000000  0.000000  0.000000  0.000000
                       0.000000  0.000000  0.000000  0.000000  0.000000  0.000000
                       0.000000  0.000000  0.000000  0.000000  0.000000  0.000000
                       0.000000  0.000000  0.000000  0.000000  0.000000  0.000000
                       0.000000  0.000000  0.000000  0.000000  0.000000  0.000000
                       0.000000  0.000000  0.000000  0.000000  0.000000  0.000000
                       0.000000  0.000000  0.000000  0.000000  0.000000  0.000000
                       0.000000  0.000000  0.000000  0.000000  0.000000  0.000000
                       0.000000  0.000000  0.000000  0.000000
                       1.000000  1.000000  1.000000  1.000000  1.000000  1.000000
                       1.000000  1.000000  1.000000  1.000000  1.000000  1.000000
                       1.000000  1.000000  1.000000  1.000000  1.000000  1.000000
                       1.000000  1.000000  1.000000  1.000000  1.000000  1.000000
                       1.000000  1.000000  1.000000  0.000000  0.000000  0.000000
                       0.000000  0.000000  0.000000  0.000000  0.000000  0.000000
                       0.000000  0.000000  0.000000  0.000000  0.000000  0.000000
                       0.000000  0.000000  0.000000  0.000000  0.000000  0.000000
                       0.000000  0.000000  0.000000  0.000000  0.000000  0.000000
                       0.000000  0.000000  0.000000  0.000000  0.000000  0.000000
                       0.000000  0.000000  0.000000  0.000000  0.000000  0.000000
                       0.000000  0.000000  0.000000  0.000000  0.000000  0.000000
                       0.000000  0.000000  0.000000  0.000000  0.000000  0.000000
                       0.000000  0.000000  0.000000  0.000000  0.000000  0.000000
                       0.000000  0.000000  0.000000  0.000000  0.000000  0.000000
                       0.000000  0.000000  0.000000  0.000000  0.000000  0.000000
                       0.000000  0.000000  0.000000  0.000000
           occopt           3
        optforces           1
           shiftk      5.00000000E-01  5.00000000E-01  5.00000000E-01
          spgroup         215
           spinat      0.0000000000E+00  0.0000000000E+00  1.0000000000E-01
                       0.0000000000E+00  0.0000000000E+00  1.0000000000E-01
                       0.0000000000E+00  0.0000000000E+00  1.0000000000E-01
                       0.0000000000E+00  0.0000000000E+00  1.0000000000E-01
                       0.0000000000E+00  0.0000000000E+00  1.0000000000E-01
                       0.0000000000E+00  0.0000000000E+00  1.0000000000E-01
                       0.0000000000E+00  0.0000000000E+00  1.0000000000E-01
                       0.0000000000E+00  0.0000000000E+00  1.0000000000E-01
                       0.0000000000E+00  0.0000000000E+00  1.0000000000E-01
                       0.0000000000E+00  0.0000000000E+00  1.0000000000E-01
                       0.0000000000E+00  0.0000000000E+00  1.0000000000E-01
                       0.0000000000E+00  0.0000000000E+00  1.0000000000E-01
                       0.0000000000E+00  0.0000000000E+00  1.0000000000E-01
                       0.0000000000E+00  0.0000000000E+00  1.0000000000E-01
                       0.0000000000E+00  0.0000000000E+00  1.0000000000E-01
                       0.0000000000E+00  0.0000000000E+00  1.0000000000E-01
                       0.0000000000E+00  0.0000000000E+00  1.0000000000E-01
                       0.0000000000E+00  0.0000000000E+00  1.0000000000E-01
                       0.0000000000E+00  0.0000000000E+00  1.0000000000E-01
                       0.0000000000E+00  0.0000000000E+00  1.0000000000E-01
                       0.0000000000E+00  0.0000000000E+00  1.0000000000E-01
           symrel      1  0  0   0  1  0   0  0  1      -1  0  0   0  1  0   0  0 -1
                      -1  0  0   0 -1  0   0  0  1       1  0  0   0 -1  0   0  0 -1
                       0  1  0   1  0  0   0  0  1       0 -1  0   1  0  0   0  0 -1
                       0 -1  0  -1  0  0   0  0  1       0  1  0  -1  0  0   0  0 -1
                       0  0  1   1  0  0   0  1  0       0  0 -1   1  0  0   0 -1  0
                       0  0 -1  -1  0  0   0  1  0       0  0  1  -1  0  0   0 -1  0
                       1  0  0   0  0  1   0  1  0      -1  0  0   0  0  1   0 -1  0
                      -1  0  0   0  0 -1   0  1  0       1  0  0   0  0 -1   0 -1  0
                       0  1  0   0  0  1   1  0  0       0 -1  0   0  0  1  -1  0  0
                       0 -1  0   0  0 -1   1  0  0       0  1  0   0  0 -1  -1  0  0
                       0  0  1   0  1  0   1  0  0       0  0 -1   0  1  0  -1  0  0
                       0  0 -1   0 -1  0   1  0  0       0  0  1   0 -1  0  -1  0  0
           tolrff      2.00000000E-02
           tsmear      1.00000000E-05 Hartree
            typat      3  3  3  3  3  2  2  2  2  1  1  1  1  1  1  1  1  1  1  1
                       1
           xangst      0.0000000000E+00  0.0000000000E+00  0.0000000000E+00
                       1.8804372284E+00 -1.8804372284E+00 -1.8804372284E+00
                      -1.8804372284E+00  1.8804372284E+00 -1.8804372284E+00
                      -1.8804372284E+00 -1.8804372284E+00  1.8804372284E+00
                       1.8804372284E+00  1.8804372284E+00  1.8804372284E+00
                       9.2904949682E-01 -9.2904949682E-01 -9.2904949682E-01
                      -9.2904949682E-01  9.2904949682E-01 -9.2904949682E-01
                      -9.2904949682E-01 -9.2904949682E-01  9.2904949682E-01
                       9.2904949682E-01  9.2904949682E-01  9.2904949682E-01
                       1.5645349042E+00 -1.5645349042E+00 -3.3105335111E+00
                       1.5645349042E+00 -3.3105335111E+00 -1.5645349042E+00
                       3.3105335111E+00 -1.5645349042E+00 -1.5645349042E+00
                      -1.5645349042E+00  1.5645349042E+00 -3.3105335111E+00
                      -1.5645349042E+00  3.3105335111E+00 -1.5645349042E+00
                      -3.3105335111E+00  1.5645349042E+00 -1.5645349042E+00
                      -1.5645349042E+00 -1.5645349042E+00  3.3105335111E+00
                      -1.5645349042E+00 -3.3105335111E+00  1.5645349042E+00
                      -3.3105335111E+00 -1.5645349042E+00  1.5645349042E+00
                       3.3105335111E+00  1.5645349042E+00  1.5645349042E+00
                       1.5645349042E+00  3.3105335111E+00  1.5645349042E+00
                       1.5645349042E+00  1.5645349042E+00  3.3105335111E+00
            xcart      0.0000000000E+00  0.0000000000E+00  0.0000000000E+00
                       3.5535113717E+00 -3.5535113717E+00 -3.5535113717E+00
                      -3.5535113717E+00  3.5535113717E+00 -3.5535113717E+00
                      -3.5535113717E+00 -3.5535113717E+00  3.5535113717E+00
                       3.5535113717E+00  3.5535113717E+00  3.5535113717E+00
                       1.7556491129E+00 -1.7556491129E+00 -1.7556491129E+00
                      -1.7556491129E+00  1.7556491129E+00 -1.7556491129E+00
                      -1.7556491129E+00 -1.7556491129E+00  1.7556491129E+00
                       1.7556491129E+00  1.7556491129E+00  1.7556491129E+00
                       2.9565424942E+00 -2.9565424942E+00 -6.2560016897E+00
                       2.9565424942E+00 -6.2560016897E+00 -2.9565424942E+00
                       6.2560016897E+00 -2.9565424942E+00 -2.9565424942E+00
                      -2.9565424942E+00  2.9565424942E+00 -6.2560016897E+00
                      -2.9565424942E+00  6.2560016897E+00 -2.9565424942E+00
                      -6.2560016897E+00  2.9565424942E+00 -2.9565424942E+00
                      -2.9565424942E+00 -2.9565424942E+00  6.2560016897E+00
                      -2.9565424942E+00 -6.2560016897E+00  2.9565424942E+00
                      -6.2560016897E+00 -2.9565424942E+00  2.9565424942E+00
                       6.2560016897E+00  2.9565424942E+00  2.9565424942E+00
                       2.9565424942E+00  6.2560016897E+00  2.9565424942E+00
                       2.9565424942E+00  2.9565424942E+00  6.2560016897E+00
             xred      0.0000000000E+00  0.0000000000E+00  0.0000000000E+00
                       2.3690075811E-01 -2.3690075811E-01 -2.3690075811E-01
                      -2.3690075811E-01  2.3690075811E-01 -2.3690075811E-01
                      -2.3690075811E-01 -2.3690075811E-01  2.3690075811E-01
                       2.3690075811E-01  2.3690075811E-01  2.3690075811E-01
                       1.1704327419E-01 -1.1704327419E-01 -1.1704327419E-01
                      -1.1704327419E-01  1.1704327419E-01 -1.1704327419E-01
                      -1.1704327419E-01 -1.1704327419E-01  1.1704327419E-01
                       1.1704327419E-01  1.1704327419E-01  1.1704327419E-01
                       1.9710283295E-01 -1.9710283295E-01 -4.1706677931E-01
                       1.9710283295E-01 -4.1706677931E-01 -1.9710283295E-01
                       4.1706677931E-01 -1.9710283295E-01 -1.9710283295E-01
                      -1.9710283295E-01  1.9710283295E-01 -4.1706677931E-01
                      -1.9710283295E-01  4.1706677931E-01 -1.9710283295E-01
                      -4.1706677931E-01  1.9710283295E-01 -1.9710283295E-01
                      -1.9710283295E-01 -1.9710283295E-01  4.1706677931E-01
                      -1.9710283295E-01 -4.1706677931E-01  1.9710283295E-01
                      -4.1706677931E-01 -1.9710283295E-01  1.9710283295E-01
                       4.1706677931E-01  1.9710283295E-01  1.9710283295E-01
                       1.9710283295E-01  4.1706677931E-01  1.9710283295E-01
                       1.9710283295E-01  1.9710283295E-01  4.1706677931E-01
            znucl        1.00000    8.00000   14.00000

================================================================================

 chkinp: Checking input parameters for consistency, jdtset=   1.

================================================================================
== DATASET  1 ==================================================================
-   mpi_nproc: 4, omp_nthreads: 8 (-1 if OMP is not activated)
-    --> not optimal distribution: autoparal keyword recommended in input file <--


--- !DatasetInfo
iteration_state: {dtset: 1, }
dimensions: {natom: 21, nkpt: 1, mband: 100, nsppol: 2, nspinor: 1, nspden: 2, mpw: 1328, }
cutoff_energies: {ecut:   4.0, pawecutdg:  -1.0, }
electrons: {nelect:   5.50000000E+01, charge:   1.00000000E+00, occopt:   3.00000000E+00, tsmear:   1.00000000E-05, }
meta: {optdriver: 0, ionmov: 0, optcell: 0, iscf: 7, paral_kgb: 0, }
...

 Real(R)+Recip(G) space primitive vectors, cartesian coordinates (Bohr,Bohr^-1):
 R(1)= 15.0000000  0.0000000  0.0000000  G(1)=  0.0666667  0.0000000  0.0000000
 R(2)=  0.0000000 15.0000000  0.0000000  G(2)=  0.0000000  0.0666667  0.0000000
 R(3)=  0.0000000  0.0000000 15.0000000  G(3)=  0.0000000  0.0000000  0.0666667
 Unit cell volume ucvol=  3.3750000E+03 bohr^3
 Angles (23,13,12)=  9.00000000E+01  9.00000000E+01  9.00000000E+01 degrees

 getcut: wavevector=  0.0000  0.0000  0.0000  ngfft=  30  30  30
         ecut(hartree)=      4.000   => boxcut(ratio)=   2.22144

 getcut : COMMENT -
  Note that boxcut > 2.2 ; recall that boxcut=Gcut(box)/Gcut(sphere) = 2
  is sufficient for exact treatment of convolution.
  Such a large boxcut is a waste : you could raise ecut
  e.g. ecut=    4.934802 Hartrees makes boxcut=2


--- Pseudopotential description ------------------------------------------------
- pspini: atom type   1  psp file is /Users/ali/Desktop/JDFTX/build-withlibxc/pseudopotentials/H.psp8
- pspatm: opening atomic psp file    /Users/ali/Desktop/JDFTX/build-withlibxc/pseudopotentials/H.psp8
- H     ONCVPSP-3.3.0  r_core=   1.00957   0.90680
-  1.00000   1.00000    171101                znucl, zion, pspdat
    8   -1012    1    4       300   0.00000   pspcod,pspxc,lmax,lloc,mmax,r2well
    2.99000000000000    0.00000000000000    0.00000000000000   rchrg,fchrg,qchrg
     nproj     2     1
     extension_switch     1
  pspatm : epsatm=    0.35491505
         --- l  ekb(1:nproj) -->
             0   -1.665338   -0.519510
             1   -0.275071
 pspatm: atomic psp has been read  and splines computed

- pspini: atom type   2  psp file is /Users/ali/Desktop/JDFTX/build-withlibxc/pseudopotentials/O.psp8
- pspatm: opening atomic psp file    /Users/ali/Desktop/JDFTX/build-withlibxc/pseudopotentials/O.psp8
- O     ONCVPSP-3.3.0  r_core=   1.35509   1.45563   1.35509
-  8.00000   6.00000    171101                znucl, zion, pspdat
    8   -1012    2    4       600   0.00000   pspcod,pspxc,lmax,lloc,mmax,r2well
    5.99000000000000    4.00000000000000    0.00000000000000   rchrg,fchrg,qchrg
     nproj     2     2     1
     extension_switch     1
  pspatm : epsatm=    6.27558977
         --- l  ekb(1:nproj) -->
             0    6.026028    0.816167
             1   -4.798959   -1.172522
             2   -1.033686
 pspatm: atomic psp has been read  and splines computed

- pspini: atom type   3  psp file is /Users/ali/Desktop/JDFTX/build-withlibxc/pseudopotentials/Si.psp8
- pspatm: opening atomic psp file    /Users/ali/Desktop/JDFTX/build-withlibxc/pseudopotentials/Si.psp8
- Si    ONCVPSP-3.3.0  r_core=   1.60303   1.72197   1.91712
- 14.00000   4.00000    171102                znucl, zion, pspdat
    8   -1012    2    4       600   0.00000   pspcod,pspxc,lmax,lloc,mmax,r2well
    5.99000000000000    4.00000000000000    0.00000000000000   rchrg,fchrg,qchrg
     nproj     2     2     2
     extension_switch     1
  pspatm : epsatm=    6.67004110
         --- l  ekb(1:nproj) -->
             0    5.565958    0.856966
             1    2.726111    0.629828
             2   -2.124804   -0.444604
 pspatm: atomic psp has been read  and splines computed

   3.51184653E+03                                ecore*ucvol(ha*bohr**3)
--------------------------------------------------------------------------------

_setup2: Arith. and geom. avg. npw (full set) are    1328.000    1328.000

================================================================================

--- !BeginCycle
iteration_state: {dtset: 1, }
solver: {iscf: 7, nstep: 100, nline: 4, wfoptalg: 0, }
tolerances: {tolrff: 2.00E-02, }
...

     iter   Etot(hartree)     deltaE(h) residm    vres2   diffor   maxfor   magn
 ETOT  1  -82.290307387999    -8.23E+01 8.35E-03 2.23E+03 2.3E-01 2.27E-01 1.000
 ETOT  2  -84.215356733803    -1.93E+00 2.74E-03 2.74E+02 3.3E-01 1.58E-01 1.000
 ETOT  3  -84.430926770249    -2.16E-01 2.34E-03 1.05E+00 9.6E-02 6.13E-02 1.000
 ETOT  4  -84.431498217139    -5.71E-04 2.18E-04 1.32E-01 1.9E-03 6.21E-02 1.000
 ETOT  5  -84.431530500051    -3.23E-05 3.40E-05 2.20E-02 1.3E-03 6.17E-02 1.000
 ETOT  6  -84.431536356413    -5.86E-06 3.44E-05 4.16E-03 8.3E-04 6.19E-02 1.000
 ETOT  7  -84.431537344794    -9.88E-07 5.45E-06 5.90E-04 5.2E-04 6.16E-02 1.000

 At SCF step    7, forces are sufficiently converged : 
  for the second time, max diff in force=  5.174E-04 is less than < tolrff=  2.000E-02 times max force

 Cartesian components of stress tensor (hartree/bohr^3)
  sigma(1 1)=  1.60802104E-03  sigma(3 2)=  0.00000000E+00
  sigma(2 2)=  1.60802104E-03  sigma(3 1)=  0.00000000E+00
  sigma(3 3)=  1.60802104E-03  sigma(2 1)=  0.00000000E+00


--- !ResultsGS
iteration_state: {dtset: 1, }
comment   : Summary of ground state results
lattice_vectors:
- [ 15.0000000,   0.0000000,   0.0000000, ]
- [  0.0000000,  15.0000000,   0.0000000, ]
- [  0.0000000,   0.0000000,  15.0000000, ]
lattice_lengths: [  15.00000,   15.00000,   15.00000, ]
lattice_angles: [ 90.000,  90.000,  90.000, ] # degrees, (23, 13, 12)
lattice_volume:   3.3750000E+03
convergence: {deltae: -9.884E-07, res2:  5.901E-04, residm:  5.455E-06, diffor:  5.174E-04, }
etotal    :  -8.44315373E+01
entropy   :   0.00000000E+00
fermie    :  -1.26617554E-01
cartesian_stress_tensor: # hartree/bohr^3
- [  1.60802104E-03,   0.00000000E+00,   0.00000000E+00, ]
- [  0.00000000E+00,   1.60802104E-03,   0.00000000E+00, ]
- [  0.00000000E+00,   0.00000000E+00,   1.60802104E-03, ]
pressure_GPa:  -4.7310E+01
xred      :
- [  0.0000E+00,   0.0000E+00,   0.0000E+00, Si]
- [  2.3690E-01,  -2.3690E-01,  -2.3690E-01, Si]
- [ -2.3690E-01,   2.3690E-01,  -2.3690E-01, Si]
- [ -2.3690E-01,  -2.3690E-01,   2.3690E-01, Si]
- [  2.3690E-01,   2.3690E-01,   2.3690E-01, Si]
- [  1.1704E-01,  -1.1704E-01,  -1.1704E-01,  O]
- [ -1.1704E-01,   1.1704E-01,  -1.1704E-01,  O]
- [ -1.1704E-01,  -1.1704E-01,   1.1704E-01,  O]
- [  1.1704E-01,   1.1704E-01,   1.1704E-01,  O]
- [  1.9710E-01,  -1.9710E-01,  -4.1707E-01,  H]
- [  1.9710E-01,  -4.1707E-01,  -1.9710E-01,  H]
- [  4.1707E-01,  -1.9710E-01,  -1.9710E-01,  H]
- [ -1.9710E-01,   1.9710E-01,  -4.1707E-01,  H]
- [ -1.9710E-01,   4.1707E-01,  -1.9710E-01,  H]
- [ -4.1707E-01,   1.9710E-01,  -1.9710E-01,  H]
- [ -1.9710E-01,  -1.9710E-01,   4.1707E-01,  H]
- [ -1.9710E-01,  -4.1707E-01,   1.9710E-01,  H]
- [ -4.1707E-01,  -1.9710E-01,   1.9710E-01,  H]
- [  4.1707E-01,   1.9710E-01,   1.9710E-01,  H]
- [  1.9710E-01,   4.1707E-01,   1.9710E-01,  H]
- [  1.9710E-01,   1.9710E-01,   4.1707E-01,  H]
cartesian_forces: # hartree/bohr
- [ -1.07387644E-18,   4.33680869E-19,   1.23908820E-18, ]
- [  6.16192607E-02,  -6.16192607E-02,  -6.16192607E-02, ]
- [ -6.16192607E-02,   6.16192607E-02,  -6.16192607E-02, ]
- [ -6.16192607E-02,  -6.16192607E-02,   6.16192607E-02, ]
- [  6.16192607E-02,   6.16192607E-02,   6.16192607E-02, ]
- [  5.50340017E-02,  -5.50340017E-02,  -5.50340017E-02, ]
- [ -5.50340017E-02,   5.50340017E-02,  -5.50340017E-02, ]
- [ -5.50340017E-02,  -5.50340017E-02,   5.50340017E-02, ]
- [  5.50340017E-02,   5.50340017E-02,   5.50340017E-02, ]
- [ -2.00633283E-03,   2.00633283E-03,  -9.78704766E-03, ]
- [ -2.00633283E-03,  -9.78704766E-03,   2.00633283E-03, ]
- [  9.78704766E-03,   2.00633283E-03,   2.00633283E-03, ]
- [  2.00633283E-03,  -2.00633283E-03,  -9.78704766E-03, ]
- [  2.00633283E-03,   9.78704766E-03,   2.00633283E-03, ]
- [ -9.78704766E-03,  -2.00633283E-03,   2.00633283E-03, ]
- [  2.00633283E-03,   2.00633283E-03,   9.78704766E-03, ]
- [  2.00633283E-03,  -9.78704766E-03,  -2.00633283E-03, ]
- [ -9.78704766E-03,   2.00633283E-03,  -2.00633283E-03, ]
- [  9.78704766E-03,  -2.00633283E-03,  -2.00633283E-03, ]
- [ -2.00633283E-03,   9.78704766E-03,  -2.00633283E-03, ]
- [ -2.00633283E-03,  -2.00633283E-03,   9.78704766E-03, ]
force_length_stats: {min:   1.69606287E-18, max:   1.06727690E-01, mean:   4.43084793E-02, }
...

 Integrated electronic and magnetization densities in atomic spheres:
 ---------------------------------------------------------------------
 Radius=ratsph(iatom), smearing ratsm=  0.0000. Diff(up-dn)=approximate z local magnetic moment.
 Atom    Radius    up_density   dn_density  Total(up+dn)  Diff(up-dn)
    1   2.00000     1.413926     1.412026      2.825952     0.001900
    2   2.00000     1.049240     1.035896      2.085136     0.013344
    3   2.00000     1.049240     1.035896      2.085136     0.013344
    4   2.00000     1.049240     1.035896      2.085136     0.013344
    5   2.00000     1.049240     1.035896      2.085136     0.013344
    6   2.00000     3.070217     2.946776      6.016993     0.123441
    7   2.00000     3.070217     2.946776      6.016993     0.123441
    8   2.00000     3.070217     2.946776      6.016993     0.123441
    9   2.00000     3.070217     2.946776      6.016993     0.123441
   10   2.00000     0.698718     0.667351      1.366069     0.031366
   11   2.00000     0.698718     0.667351      1.366069     0.031366
   12   2.00000     0.698718     0.667351      1.366069     0.031366
   13   2.00000     0.698718     0.667351      1.366069     0.031366
   14   2.00000     0.698718     0.667351      1.366069     0.031366
   15   2.00000     0.698718     0.667351      1.366069     0.031366
   16   2.00000     0.698718     0.667351      1.366069     0.031366
   17   2.00000     0.698718     0.667351      1.366069     0.031366
   18   2.00000     0.698718     0.667351      1.366069     0.031366
   19   2.00000     0.698718     0.667351      1.366069     0.031366
   20   2.00000     0.698718     0.667351      1.366069     0.031366
   21   2.00000     0.698718     0.667351      1.366069     0.031366
 ---------------------------------------------------------------------
  Sum:             26.276364    25.350932     51.627295     0.925432
 Total magnetization (from the atomic spheres):             0.925432
 Total magnetization (exact up - dn):                       1.000000
================================================================================

 ----iterations are completed or convergence reached----

 Mean square residual over all n,k,spin=   67.336E-09; max=  54.547E-07
 reduced coordinates (array xred) for   21 atoms
       0.000000000000      0.000000000000      0.000000000000
       0.236900758113     -0.236900758113     -0.236900758113
      -0.236900758113      0.236900758113     -0.236900758113
      -0.236900758113     -0.236900758113      0.236900758113
       0.236900758113      0.236900758113      0.236900758113
       0.117043274193     -0.117043274193     -0.117043274193
      -0.117043274193      0.117043274193     -0.117043274193
      -0.117043274193     -0.117043274193      0.117043274193
       0.117043274193      0.117043274193      0.117043274193
       0.197102832947     -0.197102832947     -0.417066779311
       0.197102832947     -0.417066779311     -0.197102832947
       0.417066779311     -0.197102832947     -0.197102832947
      -0.197102832947      0.197102832947     -0.417066779311
      -0.197102832947      0.417066779311     -0.197102832947
      -0.417066779311      0.197102832947     -0.197102832947
      -0.197102832947     -0.197102832947      0.417066779311
      -0.197102832947     -0.417066779311      0.197102832947
      -0.417066779311     -0.197102832947      0.197102832947
       0.417066779311      0.197102832947      0.197102832947
       0.197102832947      0.417066779311      0.197102832947
       0.197102832947      0.197102832947      0.417066779311
 rms dE/dt=  5.4496E-01; max dE/dt=  9.2429E-01; dE/dt below (all hartree)
    1       0.000000000000      0.000000000000      0.000000000000
    2      -0.924288910150      0.924288910150      0.924288910150
    3       0.924288910150     -0.924288910150      0.924288910150
    4       0.924288910150      0.924288910150     -0.924288910150
    5      -0.924288910150     -0.924288910150     -0.924288910150
    6      -0.825510025033      0.825510025033      0.825510025033
    7       0.825510025033     -0.825510025033      0.825510025033
    8       0.825510025033      0.825510025033     -0.825510025033
    9      -0.825510025033     -0.825510025033     -0.825510025033
   10       0.030094992499     -0.030094992499      0.146805714875
   11       0.030094992499      0.146805714875     -0.030094992499
   12      -0.146805714875     -0.030094992499     -0.030094992499
   13      -0.030094992499      0.030094992499      0.146805714875
   14      -0.030094992499     -0.146805714875     -0.030094992499
   15       0.146805714875      0.030094992499     -0.030094992499
   16      -0.030094992499     -0.030094992499     -0.146805714875
   17      -0.030094992499      0.146805714875      0.030094992499
   18       0.146805714875     -0.030094992499      0.030094992499
   19      -0.146805714875      0.030094992499      0.030094992499
   20       0.030094992499     -0.146805714875      0.030094992499
   21       0.030094992499      0.030094992499     -0.146805714875

 cartesian coordinates (angstrom) at end:
    1      0.00000000000000     0.00000000000000     0.00000000000000
    2      1.88043722836728    -1.88043722836728    -1.88043722836728
    3     -1.88043722836728     1.88043722836728    -1.88043722836728
    4     -1.88043722836728    -1.88043722836728     1.88043722836728
    5      1.88043722836728     1.88043722836728     1.88043722836728
    6      0.92904949682336    -0.92904949682336    -0.92904949682336
    7     -0.92904949682336     0.92904949682336    -0.92904949682336
    8     -0.92904949682336    -0.92904949682336     0.92904949682336
    9      0.92904949682336     0.92904949682336     0.92904949682336
   10      1.56453490416110    -1.56453490416110    -3.31053351107177
   11      1.56453490416110    -3.31053351107177    -1.56453490416110
   12      3.31053351107177    -1.56453490416110    -1.56453490416110
   13     -1.56453490416110     1.56453490416110    -3.31053351107177
   14     -1.56453490416110     3.31053351107177    -1.56453490416110
   15     -3.31053351107177     1.56453490416110    -1.56453490416110
   16     -1.56453490416110    -1.56453490416110     3.31053351107177
   17     -1.56453490416110    -3.31053351107177     1.56453490416110
   18     -3.31053351107177    -1.56453490416110     1.56453490416110
   19      3.31053351107177     1.56453490416110     1.56453490416110
   20      1.56453490416110     3.31053351107177     1.56453490416110
   21      1.56453490416110     1.56453490416110     3.31053351107177

 cartesian forces (hartree/bohr) at end:
    1     -0.00000000000000     0.00000000000000     0.00000000000000
    2      0.06161926067664    -0.06161926067664    -0.06161926067664
    3     -0.06161926067664     0.06161926067664    -0.06161926067664
    4     -0.06161926067664    -0.06161926067664     0.06161926067664
    5      0.06161926067664     0.06161926067664     0.06161926067664
    6      0.05503400166884    -0.05503400166884    -0.05503400166884
    7     -0.05503400166884     0.05503400166884    -0.05503400166884
    8     -0.05503400166884    -0.05503400166884     0.05503400166884
    9      0.05503400166884     0.05503400166884     0.05503400166884
   10     -0.00200633283327     0.00200633283327    -0.00978704765834
   11     -0.00200633283327    -0.00978704765834     0.00200633283327
   12      0.00978704765834     0.00200633283327     0.00200633283327
   13      0.00200633283327    -0.00200633283327    -0.00978704765834
   14      0.00200633283327     0.00978704765834     0.00200633283327
   15     -0.00978704765834    -0.00200633283327     0.00200633283327
   16      0.00200633283327     0.00200633283327     0.00978704765834
   17      0.00200633283327    -0.00978704765834    -0.00200633283327
   18     -0.00978704765834     0.00200633283327    -0.00200633283327
   19      0.00978704765834    -0.00200633283327    -0.00200633283327
   20     -0.00200633283327     0.00978704765834    -0.00200633283327
   21     -0.00200633283327    -0.00200633283327     0.00978704765834
 frms,max,avg= 3.6330524E-02 6.1619261E-02   0.000E+00  0.000E+00  0.000E+00 h/b

 cartesian forces (eV/Angstrom) at end:
    1     -0.00000000000000     0.00000000000000     0.00000000000000
    2      3.16858951637256    -3.16858951637256    -3.16858951637256
    3     -3.16858951637256     3.16858951637256    -3.16858951637256
    4     -3.16858951637256    -3.16858951637256     3.16858951637256
    5      3.16858951637256     3.16858951637256     3.16858951637256
    6      2.82996191153610    -2.82996191153610    -2.82996191153610
    7     -2.82996191153610     2.82996191153610    -2.82996191153610
    8     -2.82996191153610    -2.82996191153610     2.82996191153610
    9      2.82996191153610     2.82996191153610     2.82996191153610
   10     -0.10316977373697     0.10316977373697    -0.50327018315222
   11     -0.10316977373697    -0.50327018315223     0.10316977373697
   12      0.50327018315222     0.10316977373697     0.10316977373697
   13      0.10316977373697    -0.10316977373697    -0.50327018315222
   14      0.10316977373697     0.50327018315222     0.10316977373697
   15     -0.50327018315223    -0.10316977373697     0.10316977373697
   16      0.10316977373697     0.10316977373697     0.50327018315223
   17      0.10316977373697    -0.50327018315223    -0.10316977373697
   18     -0.50327018315223     0.10316977373697    -0.10316977373697
   19      0.50327018315222    -0.10316977373697    -0.10316977373697
   20     -0.10316977373697     0.50327018315223    -0.10316977373697
   21     -0.10316977373697    -0.10316977373697     0.50327018315223
 frms,max,avg= 1.8681905E+00 3.1685895E+00   0.000E+00  0.000E+00  0.000E+00 e/A
 length scales= 15.000000000000 15.000000000000 15.000000000000 bohr
              =  7.937658128850  7.937658128850  7.937658128850 angstroms
 prteigrs : about to open file sth1_relaxo_DS1_EIG
 Fermi (or HOMO) energy (hartree) =  -0.12662   Average Vxc (hartree)=  -0.20268
 Magnetization (Bohr magneton)=  1.00000000E+00
 Total spin up =  2.80000000E+01   Total spin down =  2.70000000E+01
 Eigenvalues (hartree) for nkpt=   1  k points, SPIN UP:
 kpt#   1, nband=100, wtk=  1.00000, kpt=  0.5000  0.5000  0.5000 (reduced coord)
  -1.36312   -1.35296   -1.35296   -1.35296   -0.55779   -0.45541   -0.45541   -0.45541
  -0.33419   -0.31850   -0.31850   -0.31850   -0.27539   -0.27539   -0.26405   -0.26405
  -0.26405   -0.23247   -0.23247   -0.23247   -0.17886   -0.17886   -0.17886   -0.16811
  -0.16811   -0.13240   -0.13240   -0.13240   -0.02887    0.05642    0.05642    0.05642
   0.09263    0.09263    0.09263    0.12664    0.12664    0.12664    0.13650    0.15280
   0.15280    0.15280    0.15485    0.15485    0.15485    0.15557    0.15557    0.16794
   0.19268    0.21662    0.21662    0.22637    0.22637    0.22637    0.23834    0.23834
   0.23834    0.25699    0.25699    0.25699    0.29086    0.29086    0.29086    0.29805
   0.29805    0.29805    0.31502    0.31502    0.31502    0.31765    0.31765    0.32447
   0.36177    0.36177    0.36177    0.38728    0.38728    0.39051    0.39051    0.39051
   0.40744    0.40744    0.40744    0.42785    0.43327    0.43327    0.43763    0.44505
   0.44505    0.44505    0.44966    0.44966    0.44966    0.47964    0.47964    0.47964
   0.48372    0.48372    0.48372    0.50675
      occupation numbers for kpt#   1
   1.00000    1.00000    1.00000    1.00000    1.00000    1.00000    1.00000    1.00000
   1.00000    1.00000    1.00000    1.00000    1.00000    1.00000    1.00000    1.00000
   1.00000    1.00000    1.00000    1.00000    1.00000    1.00000    1.00000    1.00000
   1.00000    1.00000    1.00000    1.00000    0.00000    0.00000    0.00000    0.00000
   0.00000    0.00000    0.00000    0.00000    0.00000    0.00000    0.00000    0.00000
   0.00000    0.00000    0.00000    0.00000    0.00000    0.00000    0.00000    0.00000
   0.00000    0.00000    0.00000    0.00000    0.00000    0.00000    0.00000    0.00000
   0.00000    0.00000    0.00000    0.00000    0.00000    0.00000    0.00000    0.00000
   0.00000    0.00000    0.00000    0.00000    0.00000    0.00000    0.00000    0.00000
   0.00000    0.00000    0.00000    0.00000    0.00000    0.00000    0.00000    0.00000
   0.00000    0.00000    0.00000    0.00000    0.00000    0.00000    0.00000    0.00000
   0.00000    0.00000    0.00000    0.00000    0.00000    0.00000    0.00000    0.00000
   0.00000    0.00000    0.00000    0.00000
 Eigenvalues (hartree) for nkpt=   1  k points, SPIN DOWN:
 kpt#   1, nband=100, wtk=  1.00000, kpt=  0.5000  0.5000  0.5000 (reduced coord)
  -1.35792   -1.34765   -1.34765   -1.34765   -0.55568   -0.45300   -0.45300   -0.45300
  -0.33147   -0.31515   -0.31515   -0.31515   -0.27051   -0.27051   -0.26012   -0.26012
  -0.26012   -0.22840   -0.22840   -0.22840   -0.17489   -0.17489   -0.17489   -0.16383
  -0.16383   -0.12662   -0.12662   -0.12662   -0.02768    0.05776    0.05776    0.05776
   0.09374    0.09374    0.09374    0.12819    0.12819    0.12819    0.13744    0.15464
   0.15464    0.15464    0.15585    0.15585    0.15585    0.15731    0.15731    0.16900
   0.19462    0.21781    0.21781    0.22801    0.22801    0.22801    0.23958    0.23958
   0.23958    0.25828    0.25828    0.25828    0.29214    0.29214    0.29214    0.29973
   0.29973    0.29973    0.31671    0.31671    0.31671    0.31877    0.31877    0.32531
   0.36294    0.36294    0.36294    0.38849    0.38849    0.39185    0.39185    0.39185
   0.40853    0.40853    0.40853    0.42888    0.43499    0.43499    0.43871    0.44616
   0.44616    0.44616    0.45126    0.45126    0.45126    0.48102    0.48102    0.48102
   0.48507    0.48507    0.48508    0.50834
      occupation numbers for kpt#   1
   1.00000    1.00000    1.00000    1.00000    1.00000    1.00000    1.00000    1.00000
   1.00000    1.00000    1.00000    1.00000    1.00000    1.00000    1.00000    1.00000
   1.00000    1.00000    1.00000    1.00000    1.00000    1.00000    1.00000    1.00000
   1.00000    0.66667    0.66667    0.66667    0.00000    0.00000    0.00000    0.00000
   0.00000    0.00000    0.00000    0.00000    0.00000    0.00000    0.00000    0.00000
   0.00000    0.00000    0.00000    0.00000    0.00000    0.00000    0.00000    0.00000
   0.00000    0.00000    0.00000    0.00000    0.00000    0.00000    0.00000    0.00000
   0.00000    0.00000    0.00000    0.00000    0.00000    0.00000    0.00000    0.00000
   0.00000    0.00000    0.00000    0.00000    0.00000    0.00000    0.00000    0.00000
   0.00000    0.00000    0.00000    0.00000    0.00000    0.00000    0.00000    0.00000
   0.00000    0.00000    0.00000    0.00000    0.00000    0.00000    0.00000    0.00000
   0.00000    0.00000    0.00000    0.00000    0.00000    0.00000    0.00000    0.00000
   0.00000    0.00000    0.00000    0.00000

 Calculation was performed for a charged system with PBC
 You may consider including the monopole correction to the total energy
 The correction is to be divided by the dielectric constant

--- !EnergyTerms
iteration_state     : {dtset: 1, }
comment             : Components of total free energy in Hartree
kinetic             :  3.88173578064190E+01
hartree             :  6.02524114552450E+01
xc                  : -2.46986320000643E+01
Ewald energy        : -5.03322575371364E+00
psp_core            :  1.04054711858210E+00
local_psp           : -1.58480127102022E+02
non_local_psp       :  3.67015022618530E+00
internal            : -8.44315182493685E+01
'-kT*entropy'       : -1.90954250486503E-05
total_energy        : -8.44315373447936E+01
total_energy_eV     : -2.29749897257910E+03
band_energy         : -2.36506873304534E+01
monopole_correction :  9.45765826493538E-02
monopole_correction_eV:  2.57355969463858E+00
...


 Cartesian components of stress tensor (hartree/bohr^3)
  sigma(1 1)=  1.60802104E-03  sigma(3 2)=  0.00000000E+00
  sigma(2 2)=  1.60802104E-03  sigma(3 1)=  0.00000000E+00
  sigma(3 3)=  1.60802104E-03  sigma(2 1)=  0.00000000E+00

-Cartesian components of stress tensor (GPa)         [Pressure= -4.7310E+01 GPa]
- sigma(1 1)=  4.73096044E+01  sigma(3 2)=  0.00000000E+00
- sigma(2 2)=  4.73096044E+01  sigma(3 1)=  0.00000000E+00
- sigma(3 3)=  4.73096044E+01  sigma(2 1)=  0.00000000E+00

== END DATASET(S) ==============================================================
================================================================================
  
 -outvars: echo values of variables after computation  --------
            acell      1.5000000000E+01  1.5000000000E+01  1.5000000000E+01 Bohr
              amu      1.00794000E+00  1.59994000E+01  2.80855000E+01
           charge      1.00000000E+00
           diemac      1.20000000E+01
             ecut      4.00000000E+00 Hartree
           etotal1    -8.4431537345E+01
            fcart1    -1.0738764375E-18  4.3368086899E-19  1.2390881971E-18
                       6.1619260677E-02 -6.1619260677E-02 -6.1619260677E-02
                      -6.1619260677E-02  6.1619260677E-02 -6.1619260677E-02
                      -6.1619260677E-02 -6.1619260677E-02  6.1619260677E-02
                       6.1619260677E-02  6.1619260677E-02  6.1619260677E-02
                       5.5034001669E-02 -5.5034001669E-02 -5.5034001669E-02
                      -5.5034001669E-02  5.5034001669E-02 -5.5034001669E-02
                      -5.5034001669E-02 -5.5034001669E-02  5.5034001669E-02
                       5.5034001669E-02  5.5034001669E-02  5.5034001669E-02
                      -2.0063328333E-03  2.0063328333E-03 -9.7870476583E-03
                      -2.0063328333E-03 -9.7870476583E-03  2.0063328333E-03
                       9.7870476583E-03  2.0063328333E-03  2.0063328333E-03
                       2.0063328333E-03 -2.0063328333E-03 -9.7870476583E-03
                       2.0063328333E-03  9.7870476583E-03  2.0063328333E-03
                      -9.7870476583E-03 -2.0063328333E-03  2.0063328333E-03
                       2.0063328333E-03  2.0063328333E-03  9.7870476583E-03
                       2.0063328333E-03 -9.7870476583E-03 -2.0063328333E-03
                      -9.7870476583E-03  2.0063328333E-03 -2.0063328333E-03
                       9.7870476583E-03 -2.0063328333E-03 -2.0063328333E-03
                      -2.0063328333E-03  9.7870476583E-03 -2.0063328333E-03
                      -2.0063328333E-03 -2.0063328333E-03  9.7870476583E-03
-          fftalg         312
           istwfk        1
              ixc       -1012
           jdtset        1
              kpt      5.00000000E-01  5.00000000E-01  5.00000000E-01
         kptrlatt        1    0    0      0    1    0      0    0    1
          kptrlen      1.50000000E+01
P           mkmem           1
            natom          21
            nband         100
           ndtset           1
            ngfft          30      30      30
             nkpt           1
           nspden           2
           nsppol           2
            nstep         100
             nsym          24
           ntypat           3
              occ      1.000000  1.000000  1.000000  1.000000  1.000000  1.000000
                       1.000000  1.000000  1.000000  1.000000  1.000000  1.000000
                       1.000000  1.000000  1.000000  1.000000  1.000000  1.000000
                       1.000000  1.000000  1.000000  1.000000  1.000000  1.000000
                       1.000000  1.000000  1.000000  1.000000  0.000000  0.000000
                       0.000000  0.000000  0.000000  0.000000  0.000000  0.000000
                       0.000000  0.000000  0.000000  0.000000  0.000000  0.000000
                       0.000000  0.000000  0.000000  0.000000  0.000000  0.000000
                       0.000000  0.000000  0.000000  0.000000  0.000000  0.000000
                       0.000000  0.000000  0.000000  0.000000  0.000000  0.000000
                       0.000000  0.000000  0.000000  0.000000  0.000000  0.000000
                       0.000000  0.000000  0.000000  0.000000  0.000000  0.000000
                       0.000000  0.000000  0.000000  0.000000  0.000000  0.000000
                       0.000000  0.000000  0.000000  0.000000  0.000000  0.000000
                       0.000000  0.000000  0.000000  0.000000  0.000000  0.000000
                       0.000000  0.000000  0.000000  0.000000  0.000000  0.000000
                       0.000000  0.000000  0.000000  0.000000
                       1.000000  1.000000  1.000000  1.000000  1.000000  1.000000
                       1.000000  1.000000  1.000000  1.000000  1.000000  1.000000
                       1.000000  1.000000  1.000000  1.000000  1.000000  1.000000
                       1.000000  1.000000  1.000000  1.000000  1.000000  1.000000
                       1.000000  0.666667  0.666667  0.666667  0.000000  0.000000
                       0.000000  0.000000  0.000000  0.000000  0.000000  0.000000
                       0.000000  0.000000  0.000000  0.000000  0.000000  0.000000
                       0.000000  0.000000  0.000000  0.000000  0.000000  0.000000
                       0.000000  0.000000  0.000000  0.000000  0.000000  0.000000
                       0.000000  0.000000  0.000000  0.000000  0.000000  0.000000
                       0.000000  0.000000  0.000000  0.000000  0.000000  0.000000
                       0.000000  0.000000  0.000000  0.000000  0.000000  0.000000
                       0.000000  0.000000  0.000000  0.000000  0.000000  0.000000
                       0.000000  0.000000  0.000000  0.000000  0.000000  0.000000
                       0.000000  0.000000  0.000000  0.000000  0.000000  0.000000
                       0.000000  0.000000  0.000000  0.000000  0.000000  0.000000
                       0.000000  0.000000  0.000000  0.000000
           occopt           3
        optforces           1
           shiftk      5.00000000E-01  5.00000000E-01  5.00000000E-01
          spgroup         215
           spinat      0.0000000000E+00  0.0000000000E+00  1.0000000000E-01
                       0.0000000000E+00  0.0000000000E+00  1.0000000000E-01
                       0.0000000000E+00  0.0000000000E+00  1.0000000000E-01
                       0.0000000000E+00  0.0000000000E+00  1.0000000000E-01
                       0.0000000000E+00  0.0000000000E+00  1.0000000000E-01
                       0.0000000000E+00  0.0000000000E+00  1.0000000000E-01
                       0.0000000000E+00  0.0000000000E+00  1.0000000000E-01
                       0.0000000000E+00  0.0000000000E+00  1.0000000000E-01
                       0.0000000000E+00  0.0000000000E+00  1.0000000000E-01
                       0.0000000000E+00  0.0000000000E+00  1.0000000000E-01
                       0.0000000000E+00  0.0000000000E+00  1.0000000000E-01
                       0.0000000000E+00  0.0000000000E+00  1.0000000000E-01
                       0.0000000000E+00  0.0000000000E+00  1.0000000000E-01
                       0.0000000000E+00  0.0000000000E+00  1.0000000000E-01
                       0.0000000000E+00  0.0000000000E+00  1.0000000000E-01
                       0.0000000000E+00  0.0000000000E+00  1.0000000000E-01
                       0.0000000000E+00  0.0000000000E+00  1.0000000000E-01
                       0.0000000000E+00  0.0000000000E+00  1.0000000000E-01
                       0.0000000000E+00  0.0000000000E+00  1.0000000000E-01
                       0.0000000000E+00  0.0000000000E+00  1.0000000000E-01
                       0.0000000000E+00  0.0000000000E+00  1.0000000000E-01
           strten1     1.6080210406E-03  1.6080210406E-03  1.6080210406E-03
                       0.0000000000E+00  0.0000000000E+00  0.0000000000E+00
           symrel      1  0  0   0  1  0   0  0  1      -1  0  0   0  1  0   0  0 -1
                      -1  0  0   0 -1  0   0  0  1       1  0  0   0 -1  0   0  0 -1
                       0  1  0   1  0  0   0  0  1       0 -1  0   1  0  0   0  0 -1
                       0 -1  0  -1  0  0   0  0  1       0  1  0  -1  0  0   0  0 -1
                       0  0  1   1  0  0   0  1  0       0  0 -1   1  0  0   0 -1  0
                       0  0 -1  -1  0  0   0  1  0       0  0  1  -1  0  0   0 -1  0
                       1  0  0   0  0  1   0  1  0      -1  0  0   0  0  1   0 -1  0
                      -1  0  0   0  0 -1   0  1  0       1  0  0   0  0 -1   0 -1  0
                       0  1  0   0  0  1   1  0  0       0 -1  0   0  0  1  -1  0  0
                       0 -1  0   0  0 -1   1  0  0       0  1  0   0  0 -1  -1  0  0
                       0  0  1   0  1  0   1  0  0       0  0 -1   0  1  0  -1  0  0
                       0  0 -1   0 -1  0   1  0  0       0  0  1   0 -1  0  -1  0  0
           tolrff      2.00000000E-02
           tsmear      1.00000000E-05 Hartree
            typat      3  3  3  3  3  2  2  2  2  1  1  1  1  1  1  1  1  1  1  1
                       1
           xangst      0.0000000000E+00  0.0000000000E+00  0.0000000000E+00
                       1.8804372284E+00 -1.8804372284E+00 -1.8804372284E+00
                      -1.8804372284E+00  1.8804372284E+00 -1.8804372284E+00
                      -1.8804372284E+00 -1.8804372284E+00  1.8804372284E+00
                       1.8804372284E+00  1.8804372284E+00  1.8804372284E+00
                       9.2904949682E-01 -9.2904949682E-01 -9.2904949682E-01
                      -9.2904949682E-01  9.2904949682E-01 -9.2904949682E-01
                      -9.2904949682E-01 -9.2904949682E-01  9.2904949682E-01
                       9.2904949682E-01  9.2904949682E-01  9.2904949682E-01
                       1.5645349042E+00 -1.5645349042E+00 -3.3105335111E+00
                       1.5645349042E+00 -3.3105335111E+00 -1.5645349042E+00
                       3.3105335111E+00 -1.5645349042E+00 -1.5645349042E+00
                      -1.5645349042E+00  1.5645349042E+00 -3.3105335111E+00
                      -1.5645349042E+00  3.3105335111E+00 -1.5645349042E+00
                      -3.3105335111E+00  1.5645349042E+00 -1.5645349042E+00
                      -1.5645349042E+00 -1.5645349042E+00  3.3105335111E+00
                      -1.5645349042E+00 -3.3105335111E+00  1.5645349042E+00
                      -3.3105335111E+00 -1.5645349042E+00  1.5645349042E+00
                       3.3105335111E+00  1.5645349042E+00  1.5645349042E+00
                       1.5645349042E+00  3.3105335111E+00  1.5645349042E+00
                       1.5645349042E+00  1.5645349042E+00  3.3105335111E+00
            xcart      0.0000000000E+00  0.0000000000E+00  0.0000000000E+00
                       3.5535113717E+00 -3.5535113717E+00 -3.5535113717E+00
                      -3.5535113717E+00  3.5535113717E+00 -3.5535113717E+00
                      -3.5535113717E+00 -3.5535113717E+00  3.5535113717E+00
                       3.5535113717E+00  3.5535113717E+00  3.5535113717E+00
                       1.7556491129E+00 -1.7556491129E+00 -1.7556491129E+00
                      -1.7556491129E+00  1.7556491129E+00 -1.7556491129E+00
                      -1.7556491129E+00 -1.7556491129E+00  1.7556491129E+00
                       1.7556491129E+00  1.7556491129E+00  1.7556491129E+00
                       2.9565424942E+00 -2.9565424942E+00 -6.2560016897E+00
                       2.9565424942E+00 -6.2560016897E+00 -2.9565424942E+00
                       6.2560016897E+00 -2.9565424942E+00 -2.9565424942E+00
                      -2.9565424942E+00  2.9565424942E+00 -6.2560016897E+00
                      -2.9565424942E+00  6.2560016897E+00 -2.9565424942E+00
                      -6.2560016897E+00  2.9565424942E+00 -2.9565424942E+00
                      -2.9565424942E+00 -2.9565424942E+00  6.2560016897E+00
                      -2.9565424942E+00 -6.2560016897E+00  2.9565424942E+00
                      -6.2560016897E+00 -2.9565424942E+00  2.9565424942E+00
                       6.2560016897E+00  2.9565424942E+00  2.9565424942E+00
                       2.9565424942E+00  6.2560016897E+00  2.9565424942E+00
                       2.9565424942E+00  2.9565424942E+00  6.2560016897E+00
             xred      0.0000000000E+00  0.0000000000E+00  0.0000000000E+00
                       2.3690075811E-01 -2.3690075811E-01 -2.3690075811E-01
                      -2.3690075811E-01  2.3690075811E-01 -2.3690075811E-01
                      -2.3690075811E-01 -2.3690075811E-01  2.3690075811E-01
                       2.3690075811E-01  2.3690075811E-01  2.3690075811E-01
                       1.1704327419E-01 -1.1704327419E-01 -1.1704327419E-01
                      -1.1704327419E-01  1.1704327419E-01 -1.1704327419E-01
                      -1.1704327419E-01 -1.1704327419E-01  1.1704327419E-01
                       1.1704327419E-01  1.1704327419E-01  1.1704327419E-01
                       1.9710283295E-01 -1.9710283295E-01 -4.1706677931E-01
                       1.9710283295E-01 -4.1706677931E-01 -1.9710283295E-01
                       4.1706677931E-01 -1.9710283295E-01 -1.9710283295E-01
                      -1.9710283295E-01  1.9710283295E-01 -4.1706677931E-01
                      -1.9710283295E-01  4.1706677931E-01 -1.9710283295E-01
                      -4.1706677931E-01  1.9710283295E-01 -1.9710283295E-01
                      -1.9710283295E-01 -1.9710283295E-01  4.1706677931E-01
                      -1.9710283295E-01 -4.1706677931E-01  1.9710283295E-01
                      -4.1706677931E-01 -1.9710283295E-01  1.9710283295E-01
                       4.1706677931E-01  1.9710283295E-01  1.9710283295E-01
                       1.9710283295E-01  4.1706677931E-01  1.9710283295E-01
                       1.9710283295E-01  1.9710283295E-01  4.1706677931E-01
            znucl        1.00000    8.00000   14.00000

================================================================================


- Timing analysis has been suppressed with timopt=0



================================================================================

 Suggested references for the acknowledgment of ABINIT usage.

 The users of ABINIT have little formal obligations with respect to the ABINIT group
 (those specified in the GNU General Public License, http://www.gnu.org/copyleft/gpl.txt).
 However, it is common practice in the scientific literature,
 to acknowledge the efforts of people that have made the research possible.
 In this spirit, please find below suggested citations of work written by ABINIT developers,
 corresponding to implementations inside of ABINIT that you have used in the present run.
 Note also that it will be of great value to readers of publications presenting these results,
 to read papers enabling them to understand the theoretical formalism and details
 of the ABINIT implementation.
 For information on why they are suggested, see also https://docs.abinit.org/theory/acknowledgments.
-
- [1] Libxc: A library of exchange and correlation functionals for density functional theory.
- M.A.L. Marques, M.J.T. Oliveira, T. Burnus, Computer Physics Communications 183, 2227 (2012).
- Comment: to be cited when LibXC is used (negative value of ixc)
- Strong suggestion to cite this paper.
- DOI and bibtex: see https://docs.abinit.org/theory/bibliography/#marques2012
-
- [2] The Abinit project: Impact, environment and recent developments.
- Computer Phys. Comm. 248, 107042 (2020).
- X.Gonze, B. Amadon, G. Antonius, F.Arnardi, L.Baguet, J.-M.Beuken,
- J.Bieder, F.Bottin, J.Bouchet, E.Bousquet, N.Brouwer, F.Bruneval,
- G.Brunin, T.Cavignac, J.-B. Charraud, Wei Chen, M.Cote, S.Cottenier,
- J.Denier, G.Geneste, Ph.Ghosez, M.Giantomassi, Y.Gillet, O.Gingras,
- D.R.Hamann, G.Hautier, Xu He, N.Helbig, N.Holzwarth, Y.Jia, F.Jollet,
- W.Lafargue-Dit-Hauret, K.Lejaeghere, M.A.L.Marques, A.Martin, C.Martins,
- H.P.C. Miranda, F.Naccarato, K. Persson, G.Petretto, V.Planes, Y.Pouillon,
- S.Prokhorenko, F.Ricci, G.-M.Rignanese, A.H.Romero, M.M.Schmitt, M.Torrent,
- M.J.van Setten, B.Van Troeye, M.J.Verstraete, G.Zerah and J.W.Zwanzig
- Comment: the fifth generic paper describing the ABINIT project.
- Note that a version of this paper, that is not formatted for Computer Phys. Comm. 
- is available at https://www.abinit.org/sites/default/files/ABINIT20.pdf .
- The licence allows the authors to put it on the Web.
- DOI and bibtex: see https://docs.abinit.org/theory/bibliography/#gonze2020
-
- [3] Optimized norm-conserving Vanderbilt pseudopotentials.
- D.R. Hamann, Phys. Rev. B 88, 085117 (2013).
- Comment: Some pseudopotential generated using the ONCVPSP code were used.
- DOI and bibtex: see https://docs.abinit.org/theory/bibliography/#hamann2013
-
- [4] ABINIT: Overview, and focus on selected capabilities
- J. Chem. Phys. 152, 124102 (2020).
- A. Romero, D.C. Allan, B. Amadon, G. Antonius, T. Applencourt, L.Baguet,
- J.Bieder, F.Bottin, J.Bouchet, E.Bousquet, F.Bruneval,
- G.Brunin, D.Caliste, M.Cote,
- J.Denier, C. Dreyer, Ph.Ghosez, M.Giantomassi, Y.Gillet, O.Gingras,
- D.R.Hamann, G.Hautier, F.Jollet, G. Jomard,
- A.Martin, 
- H.P.C. Miranda, F.Naccarato, G.Petretto, N.A. Pike, V.Planes,
- S.Prokhorenko, T. Rangel, F.Ricci, G.-M.Rignanese, M.Royo, M.Stengel, M.Torrent,
- M.J.van Setten, B.Van Troeye, M.J.Verstraete, J.Wiktor, J.W.Zwanziger, and X.Gonze.
- Comment: a global overview of ABINIT, with focus on selected capabilities .
- Note that a version of this paper, that is not formatted for J. Chem. Phys 
- is available at https://www.abinit.org/sites/default/files/ABINIT20_JPC.pdf .
- The licence allows the authors to put it on the Web.
- DOI and bibtex: see https://docs.abinit.org/theory/bibliography/#romero2020
-
- [5] Recent developments in the ABINIT software package.
- Computer Phys. Comm. 205, 106 (2016).
- X.Gonze, F.Jollet, F.Abreu Araujo, D.Adams, B.Amadon, T.Applencourt,
- C.Audouze, J.-M.Beuken, J.Bieder, A.Bokhanchuk, E.Bousquet, F.Bruneval
- D.Caliste, M.Cote, F.Dahm, F.Da Pieve, M.Delaveau, M.Di Gennaro,
- B.Dorado, C.Espejo, G.Geneste, L.Genovese, A.Gerossier, M.Giantomassi,
- Y.Gillet, D.R.Hamann, L.He, G.Jomard, J.Laflamme Janssen, S.Le Roux,
- A.Levitt, A.Lherbier, F.Liu, I.Lukacevic, A.Martin, C.Martins,
- M.J.T.Oliveira, S.Ponce, Y.Pouillon, T.Rangel, G.-M.Rignanese,
- A.H.Romero, B.Rousseau, O.Rubel, A.A.Shukri, M.Stankovski, M.Torrent,
- M.J.Van Setten, B.Van Troeye, M.J.Verstraete, D.Waroquier, J.Wiktor,
- B.Xu, A.Zhou, J.W.Zwanziger.
- Comment: the fourth generic paper describing the ABINIT project.
- Note that a version of this paper, that is not formatted for Computer Phys. Comm. 
- is available at https://www.abinit.org/sites/default/files/ABINIT16.pdf .
- The licence allows the authors to put it on the Web.
- DOI and bibtex: see https://docs.abinit.org/theory/bibliography/#gonze2016
-
- Proc.   0 individual time (sec): cpu=         35.2  wall=         20.1

================================================================================

 Calculation completed.
.Delivered   0 WARNINGs and   2 COMMENTs to log file.
+Overall time at end (sec) : cpu=        108.4  wall=         80.1
